LAMMPS (15 May 2015)
echo screen
Created orthogonal box = (-1.5 -1.5 -1) to (2 2 1)
  1 by 1 by 1 MPI processor grid
Created 1 atoms
1 atoms in group solid
Neighbor list info ...
  1 neighbor list requests
  update every 1 steps, delay 10 steps, check yes
  master list distance cutoff = 3.3
Memory usage per processor = 2.33567 Mbytes
Step Temp KinEng PotEng TotEng xx yy ffx ffy ee Press 
       0            0            0            0            0          1.3          1.3    -37.59954    -37.59954   -6.8616001            0 
       1            0            0            0            0    1.3000042    1.2999837   -37.602521   -37.600111   -6.8620533            0 
       2            0            0            0            0    1.3000266    1.2998909   -37.619672   -37.603746   -6.8647052            0 
       3            0            0            0            0    1.3000684    1.2997312   -37.648853   -37.609265   -6.8691342            0 
       4            0            0            0            0    1.3000105    1.2994862   -37.704526   -37.642861   -6.8805341            0 
       5            0            0            0            0    1.2998761    1.2991784   -37.780015   -37.697763   -6.8972024            0 
       6            0            0            0            0    1.2996918    1.2988362   -37.867134   -37.765967   -6.9170847            0 
       7            0            0            0            0    1.2994593    1.2984114   -37.975729   -37.851386   -6.9419621            0 
       8            0            0            0            0    1.2991435    1.2979585   -38.097723   -37.956516   -6.9711421            0 
       9            0            0            0            0    1.2988068    1.2974902   -38.224933   -38.067338    -7.001792            0 
      10            0            0            0            0    1.2985076    1.2970547   -38.342122   -38.167533   -7.0298452            0 
      11            0            0            0            0    1.2981166    1.2966058   -38.470418   -38.288036   -7.0620212            0 
      12            0            0            0            0    1.2976698    1.2960792   -38.620055   -38.427023   -7.0994451            0 
      13            0            0            0            0    1.2972269    1.2954831   -38.784082   -38.571255   -7.1395333            0 
      14            0            0            0            0    1.2967324     1.294906   -38.948953    -38.72474   -7.1810574            0 
      15            0            0            0            0     1.296199    1.2943079   -39.121896   -38.888325   -7.2250908            0 
      16            0            0            0            0    1.2956699    1.2937134   -39.293928   -39.050811   -7.2690044            0 
      17            0            0            0            0    1.2950698    1.2930189   -39.493567    -39.23695   -7.3198269            0 
      18            0            0            0            0    1.2944582    1.2923489   -39.689332   -39.423581   -7.3703921            0 
      19            0            0            0            0    1.2937889    1.2916855   -39.889002   -39.622097    -7.423244            0 
      20            0            0            0            0    1.2930803     1.291014   -40.094035   -39.829889    -7.478257            0 
      21            0            0            0            0    1.2923086    1.2902928   -40.315391   -40.055633   -7.5380914            0 
      22            0            0            0            0    1.2915621    1.2895416    -40.54121   -40.278766   -7.5984454            0 
      23            0            0            0            0     1.290745    1.2887971   -40.771894   -40.516779    -7.661739            0 
      24            0            0            0            0    1.2898599    1.2879915   -41.021804   -40.774901   -7.7306821            0 
      25            0            0            0            0    1.2888615    1.2871201   -41.295829   -41.063417   -7.8074342            0 
      26            0            0            0            0    1.2877933    1.2861628   -41.594592    -41.37465   -7.8911602            0 
      27            0            0            0            0    1.2867428    1.2851524   -41.903709   -41.686836   -7.9769804            0 
      28            0            0            0            0    1.2856033    1.2841448   -42.219882    -42.01875   -8.0670832            0 
      29            0            0            0            0    1.2843572    1.2831628   -42.539268   -42.372642   -8.1613273            0 
      30            0            0            0            0    1.2830308    1.2822019   -42.860381   -42.743355   -8.2588607            0 
      31            0            0            0            0    1.2817084     1.281238    -43.18144   -43.114237   -8.3571285            0 
      32            0            0            0            0    1.2802948    1.2801696   -43.532693   -43.514567    -8.464694            0 
      33            0            0            0            0    1.2789086    1.2790713   -43.888056   -43.911908   -8.5732968            0 
      34            0            0            0            0    1.2774054    1.2779727   -44.252092   -44.336337   -8.6880185            0 
      35            0            0            0            0    1.2758729    1.2768445    -44.62428   -44.770547   -8.8063849            0 
      36            0            0            0            0    1.2743555    1.2756289   -45.014406   -45.208771     -8.92908            0 
      37            0            0            0            0    1.2727531    1.2744255   -45.407235   -45.666135   -9.0562101            0 
      38            0            0            0            0     1.271176    1.2731298   -45.818378   -46.125226   -9.1876096            0 
      39            0            0            0            0    1.2696015     1.271744   -46.249249   -46.590754   -9.3243353            0 
      40            0            0            0            0    1.2679875    1.2702667   -46.703238   -47.072139   -9.4685318            0 
      41            0            0            0            0    1.2662946    1.2686664   -47.190308   -47.580497   -9.6237429            0 
      42            0            0            0            0     1.264626    1.2670818   -47.671126   -48.081634   -9.7786812            0 
      43            0            0            0            0    1.2628972    1.2653868   -48.180648   -48.603815    -9.943477            0 
      44            0            0            0            0    1.2611287     1.263599   -48.713326   -49.140521   -10.116529            0 
      45            0            0            0            0    1.2593142    1.2618052   -49.248788   -49.687143   -10.294045            0 
      46            0            0            0            0    1.2574022    1.2600353   -49.782414   -50.254008   -10.477161            0 
      47            0            0            0            0    1.2554463    1.2582611   -50.317044   -50.830214   -10.664725            0 
      48            0            0            0            0    1.2533936    1.2564828   -50.854894   -51.428371    -10.85949            0 
      49            0            0            0            0    1.2512292    1.2546306   -51.412539   -52.055969   -11.065999            0 
      50            0            0            0            0    1.2490142    1.2526634   -51.996091   -52.699977   -11.283566            0 
      51            0            0            0            0    1.2467182    1.2505927   -52.603575   -53.366136    -11.51346            0 
      52            0            0            0            0    1.2444278    1.2485247   -53.204639   -54.027259   -11.745677            0 
      53            0            0            0            0    1.2420833    1.2463533   -53.827186   -54.702335   -11.989196            0 
      54            0            0            0            0    1.2397501     1.244194   -54.439812   -55.369219   -12.234342            0 
      55            0            0            0            0    1.2373076    1.2419897   -55.059778   -56.059558   -12.490884            0 
      56            0            0            0            0    1.2348547    1.2397124   -55.689862   -56.749063   -12.755164            0 
      57            0            0            0            0    1.2322903    1.2373431   -56.336322   -57.462162   -13.034107            0 
      58            0            0            0            0    1.2296483    1.2348546   -57.003447   -58.189637   -13.327734            0 
      59            0            0            0            0    1.2269707    1.2322355   -57.691993   -58.919157   -13.634654            0 
      60            0            0            0            0    1.2242661    1.2295051   -58.395975   -59.645663   -13.953512            0 
      61            0            0            0            0     1.221489     1.226743   -59.094319   -60.377136   -14.282413            0 
      62            0            0            0            0    1.2186502    1.2238653   -59.806003   -61.109958   -14.625987            0 
      63            0            0            0            0    1.2157894    1.2209063   -60.520885   -61.831258    -14.98001            0 
      64            0            0            0            0    1.2128994     1.217933   -61.220614   -62.540712   -15.340831            0 
      65            0            0            0            0    1.2099681    1.2148496   -61.927148    -63.23862   -15.715251            0 
      66            0            0            0            0    1.2069907    1.2117801   -62.607391   -63.925287   -16.095823            0 
      67            0            0            0            0    1.2039006    1.2085863   -63.290868   -64.612253   -16.495613            0 
      68            0            0            0            0    1.2008208    1.2053879   -63.949657   -65.269155   -16.899273            0 
      69            0            0            0            0    1.1976253    1.2021682   -64.579877   -65.924726   -17.315848            0 
      70            0            0            0            0      1.19432    1.1989503    -65.17188   -66.576473   -17.743491            0 
      71            0            0            0            0    1.1909447    1.1955934    -65.75841   -67.204031   -18.189017            0 
      72            0            0            0            0    1.1874957    1.1921873   -66.313338   -67.809013   -18.646726            0 
      73            0            0            0            0    1.1840503    1.1886779   -66.852693   -68.365037    -19.11511            0 
      74            0            0            0            0    1.1804695    1.1850355   -67.366835   -68.897343    -19.60542            0 
      75            0            0            0            0    1.1768897    1.1813202   -67.850235   -69.373129   -20.104338            0 
      76            0            0            0            0    1.1732376    1.1775498   -68.287069   -69.806983   -20.615345            0 
      77            0            0            0            0    1.1695934    1.1736506   -68.700284   -70.166604   -21.137883            0 
      78            0            0            0            0    1.1658587    1.1696112   -69.074706   -70.465658   -21.679234            0 
      79            0            0            0            0     1.161992     1.165577   -69.364475   -70.727245   -22.231723            0 
      80            0            0            0            0    1.1580307    1.1614139   -69.598015   -70.917055   -22.801847            0 
      81            0            0            0            0    1.1539608    1.1571407   -69.760873   -71.032576   -23.388784            0 
      82            0            0            0            0    1.1497602    1.1528609   -69.818542   -71.090332   -23.986133            0 
      83            0            0            0            0    1.1454658     1.148512   -69.783666     -71.0648   -24.595062            0 
      84            0            0            0            0    1.1410651    1.1441365   -69.637122   -70.961336   -25.212617            0 
      85            0            0            0            0    1.1366416     1.139762   -69.387275   -70.765627   -25.830177            0 
      86            0            0            0            0    1.1322133    1.1352964   -69.052944   -70.447611   -26.452074            0 
      87            0            0            0            0    1.1276644    1.1308138   -68.583674   -70.042237   -27.080087            0 
      88            0            0            0            0    1.1230467    1.1262349   -68.000755   -69.511952   -27.715033            0 
      89            0            0            0            0    1.1184163    1.1215279   -67.320586    -68.82949   -28.354004            0 
      90            0            0            0            0     1.113745    1.1167944   -66.512999   -68.025008   -28.990582            0 
      91            0            0            0            0    1.1090805    1.1119593   -65.602697   -67.061449   -29.625392            0 
      92            0            0            0            0    1.1043394    1.1070711   -64.548741   -65.962571   -30.259146            0 
      93            0            0            0            0    1.0995996    1.1021944    -63.36785   -64.738536   -30.881095            0 
      94            0            0            0            0    1.0948307    1.0973068    -62.05079   -63.384761   -31.493358            0 
      95            0            0            0            0    1.0899943    1.0923095   -60.591059   -61.862539   -32.102991            0 
      96            0            0            0            0    1.0850567    1.0872276   -58.965368   -60.180102   -32.708367            0 
      97            0            0            0            0    1.0800721    1.0820456   -57.194721   -58.319222    -33.30502            0 
      98            0            0            0            0    1.0749746     1.076745   -55.245612    -56.27233   -33.895427            0 
      99            0            0            0            0    1.0697842    1.0713988   -53.115837   -54.068242   -34.471722            0 
     100            0            0            0            0    1.0644776    1.0660674   -50.786163   -51.739117   -35.029581            0 
Loop time of 0.085552 on 1 procs for 100 steps with 1 atoms

Pair  time (%) = 6.1512e-05 (0.0719001)
Neigh time (%) = 8.82149e-06 (0.0103113)
Comm  time (%) = 5.17368e-05 (0.0604742)
Outpt time (%) = 0.0265639 (31.05)
Other time (%) = 0.058866 (68.8073)

Nlocal:    1 ave 1 max 1 min
Histogram: 1 0 0 0 0 0 0 0 0 0
Nghost:    0 ave 0 max 0 min
Histogram: 1 0 0 0 0 0 0 0 0 0
Neighs:    0 ave 0 max 0 min
Histogram: 1 0 0 0 0 0 0 0 0 0

Total # of neighbors = 0
Ave neighs/atom = 0
Neighbor list builds = 2
Dangerous builds = 0
