LAMMPS (14 May 2016)
echo screen
Created orthogonal box = (-1.5 -1.5 -1) to (2 2 1)
  1 by 1 by 1 MPI processor grid
Created 1 atoms
1 atoms in group solid
Neighbor list info ...
  1 neighbor list requests
  update every 1 steps, delay 10 steps, check yes
  max neighbors/atom: 2000, page size: 100000
  master list distance cutoff = 3.3
  ghost atom cutoff = 3.3
  binsize = 1.65 -> bins = 3 3 2
Memory usage per processor = 1.8357 Mbytes
Step Temp KinEng PotEng TotEng xx yy ffx ffy ee Press 
       0            0            0            0            0          1.3          1.3    -37.59954    -37.59954   -6.8616001            0 
       1            0            0            0            0    1.2999637     1.299964   -37.610183   -37.610211   -6.8643192            0 
       2            0            0            0            0    1.2998702    1.2998838   -37.635002   -37.636604   -6.8708545            0 
       3            0            0            0            0    1.2997057    1.2998414   -37.658313   -37.674269     -6.87864            0 
       4            0            0            0            0    1.2994753    1.2998162   -37.683921   -37.724053   -6.8882734            0 
       5            0            0            0            0    1.2992553    1.2997803   -37.710759   -37.772668   -6.8979223            0 
       6            0            0            0            0    1.2989892    1.2997265   -37.745333   -37.832426    -6.909996            0 
       7            0            0            0            0    1.2986107    1.2996328   -37.797987   -37.919024   -6.9278403            0 
       8            0            0            0            0    1.2982606    1.2995267   -37.850644   -38.000949   -6.9451096            0 
       9            0            0            0            0    1.2979328    1.2993939   -37.906829   -38.080723   -6.9625776            0 
      10            0            0            0            0     1.297545    1.2992481   -37.970908   -38.174202   -6.9828513            0 
      11            0            0            0            0    1.2971611    1.2990237   -38.050925   -38.273994   -7.0060217            0 
      12            0            0            0            0    1.2967745    1.2987546   -38.140447   -38.378436   -7.0310592            0 
      13            0            0            0            0    1.2962894    1.2984943   -38.236675   -38.502763    -7.059591            0 
      14            0            0            0            0    1.2958255    1.2982087    -38.33633   -38.625111   -7.0883701            0 
      15            0            0            0            0    1.2953291    1.2978697   -38.449917   -38.759169   -7.1205445            0 
      16            0            0            0            0    1.2948327    1.2974526   -38.579877   -38.900365   -7.1558565            0 
      17            0            0            0            0    1.2942749    1.2969812    -38.72657   -39.059468   -7.1957909            0 
      18            0            0            0            0    1.2937462    1.2964502   -38.883433   -39.217963   -7.2370927            0 
      19            0            0            0            0    1.2931283    1.2958347   -39.065868   -39.402929   -7.2853707            0 
      20            0            0            0            0    1.2924792    1.2952141   -39.252213   -39.595153   -7.3353002            0 
      21            0            0            0            0    1.2918639    1.2945917   -39.436283   -39.780599   -7.3842121            0 
      22            0            0            0            0    1.2912111    1.2939163   -39.634961    -39.97888   -7.4369541            0 
      23            0            0            0            0    1.2904459     1.293141   -39.864647   -40.210109   -7.4984548            0 
      24            0            0            0            0    1.2896919    1.2922633    -40.11566   -40.448146     -7.56401            0 
      25            0            0            0            0    1.2889256    1.2913786   -40.369582   -40.689551   -7.6307339            0 
      26            0            0            0            0    1.2880841    1.2904818   -40.632757    -40.94842   -7.7014212            0 
      27            0            0            0            0    1.2872129    1.2896119   -40.892911   -41.211667   -7.7726705            0 
      28            0            0            0            0    1.2863416    1.2886614   -41.170889   -41.482091   -7.8477239            0 
      29            0            0            0            0    1.2854891    1.2877065   -41.448657   -41.748975   -7.9226789            0 
      30            0            0            0            0    1.2846117    1.2867859   -41.721324   -42.018566   -7.9977256            0 
      31            0            0            0            0    1.2836865    1.2858357   -42.004614   -42.301329    -8.076516            0 
      32            0            0            0            0    1.2827282    1.2848554   -42.297446   -42.594109   -8.1585178            0 
      33            0            0            0            0    1.2817736    1.2837882   -42.609523   -42.893454   -8.2446651            0 
      34            0            0            0            0    1.2807104    1.2827531   -42.923343   -43.214382   -8.3346975            0 
      35            0            0            0            0     1.279576    1.2816408   -43.260112   -43.557719   -8.4318386            0 
      36            0            0            0            0    1.2784473    1.2804171    -43.62156   -43.908937   -8.5343836            0 
      37            0            0            0            0    1.2773368    1.2792204   -43.975882   -44.253947   -8.6357803            0 
      38            0            0            0            0    1.2762158    1.2780117   -44.333926   -44.602209   -8.7389757            0 
      39            0            0            0            0    1.2750784    1.2767338   -44.709122   -44.959471   -8.8468396            0 
      40            0            0            0            0    1.2739047    1.2753527    -45.11079   -45.332628   -8.9618995            0 
      41            0            0            0            0    1.2726368    1.2738806   -45.540529   -45.733732   -9.0863981            0 
      42            0            0            0            0    1.2712799    1.2723554   -45.989156   -46.158637   -9.2185715            0 
      43            0            0            0            0    1.2699332    1.2707432   -46.457297   -46.586842   -9.3555843            0 
      44            0            0            0            0    1.2685083     1.269151    -46.92646   -47.030788   -9.4966469            0 
      45            0            0            0            0    1.2670267     1.267575   -47.395577   -47.485947   -9.6410002            0 
      46            0            0            0            0    1.2654479     1.265991    -47.87266   -47.963563   -9.7918019            0 
      47            0            0            0            0     1.263893    1.2644358   -48.340581   -48.432833   -9.9415593            0 
      48            0            0            0            0    1.2623672    1.2628603    -48.81055   -48.895627   -10.092349            0 
      49            0            0            0            0    1.2607735    1.2612982   -49.280607   -49.372516   -10.247261            0 
      50            0            0            0            0    1.2591907    1.2596438   -49.770728    -49.85134   -10.407734            0 
      51            0            0            0            0    1.2574925    1.2578694    -50.29502   -50.363193   -10.581605            0 
      52            0            0            0            0    1.2557737    1.2560776   -50.823063   -50.878958   -10.759214            0 
      53            0            0            0            0    1.2540307    1.2541968   -51.372007   -51.403082    -10.94446            0 
      54            0            0            0            0    1.2522209    1.2522461   -51.939342    -51.94414   -11.138743            0 
      55            0            0            0            0    1.2503571    1.2502553   -52.516708   -52.496971    -11.34005            0 
      56            0            0            0            0    1.2484019    1.2482527   -53.098376   -53.068924   -11.549006            0 
      57            0            0            0            0    1.2463595    1.2461409   -53.707022   -53.663026   -11.770775            0 
      58            0            0            0            0    1.2442667     1.244031   -54.313018   -54.264684   -11.997665            0 
      59            0            0            0            0    1.2421526    1.2419193   -54.915385   -54.866627   -12.228354            0 
      60            0            0            0            0    1.2400159     1.239703   -55.538989   -55.472289   -12.468634            0 
      61            0            0            0            0    1.2378336    1.2374081   -56.177657   -56.085144   -12.718546            0 
      62            0            0            0            0    1.2356467    1.2350751   -56.819447   -56.692665   -12.973658            0 
      63            0            0            0            0    1.2333718     1.232635   -57.483012   -57.316201   -13.242768            0 
      64            0            0            0            0    1.2310501    1.2300754   -58.169267   -57.943924   -13.524542            0 
      65            0            0            0            0    1.2287386    1.2274704   -58.857856   -58.558422   -13.811542            0 
      66            0            0            0            0    1.2264321    1.2247345   -59.569755   -59.160309   -14.109156            0 
      67            0            0            0            0    1.2240711    1.2219331   -60.288493   -59.761542   -14.417227            0 
      68            0            0            0            0    1.2216289    1.2191418   -60.993749   -60.367331   -14.732996            0 
      69            0            0            0            0    1.2190597    1.2163181   -61.693925   -60.988011   -15.061939            0 
      70            0            0            0            0    1.2164415    1.2134939   -62.379055   -61.603142    -15.39748            0 
      71            0            0            0            0    1.2137258     1.210667   -63.047115   -62.223892   -15.742821            0 
      72            0            0            0            0    1.2108725     1.207848   -63.691877   -62.859426   -16.099952            0 
      73            0            0            0            0     1.207967    1.2049947   -64.322656   -63.485949   -16.466179            0 
      74            0            0            0            0     1.204927    1.2020829   -64.940166   -64.120938    -16.84846            0 
      75            0            0            0            0    1.2018565    1.1991254   -65.541644   -64.736696   -17.239344            0 
      76            0            0            0            0    1.1987872    1.1961712    -66.11473   -65.326094   -17.633514            0 
      77            0            0            0            0    1.1956102    1.1932288   -66.649517    -65.91515    -18.03751            0 
      78            0            0            0            0    1.1923941    1.1902489    -67.15885   -66.482156   -18.449963            0 
      79            0            0            0            0    1.1891687    1.1871783   -67.655377   -67.013146   -18.872354            0 
      80            0            0            0            0    1.1858198    1.1841211   -68.102017   -67.541331   -19.305366            0 
      81            0            0            0            0    1.1824619    1.1810054    -68.52231   -68.030616   -19.745977            0 
      82            0            0            0            0    1.1790766    1.1778132   -68.916404   -68.480158   -20.196518            0 
      83            0            0            0            0    1.1756213    1.1746196    -69.25897   -68.905232   -20.654636            0 
      84            0            0            0            0    1.1720285    1.1713079   -69.563991   -69.303608   -21.132901            0 
      85            0            0            0            0    1.1683309    1.1679557   -69.811381    -69.67269   -21.623548            0 
      86            0            0            0            0     1.164607    1.1645642   -70.007461   -69.991291   -22.120749            0 
      87            0            0            0            0     1.160855    1.1611539   -70.144464   -70.260083   -22.622864            0 
      88            0            0            0            0    1.1571106    1.1577358   -70.223685    -70.47091   -23.126212            0 
      89            0            0            0            0    1.1533082    1.1542654   -70.240366   -70.627235   -23.638131            0 
      90            0            0            0            0    1.1493712    1.1507345   -70.175671   -70.738975   -24.164155            0 
      91            0            0            0            0    1.1454284    1.1471254    -70.05406   -70.770728   -24.696013            0 
      92            0            0            0            0    1.1413824    1.1434111   -69.854822   -70.730521   -25.241881            0 
      93            0            0            0            0    1.1372266     1.139644   -69.558693   -70.625154   -25.797877            0 
      94            0            0            0            0    1.1330235    1.1358475    -69.17088   -70.443778   -26.357267            0 
      95            0            0            0            0    1.1287221    1.1319575   -68.684343   -70.174224   -26.927311            0 
      96            0            0            0            0    1.1242925    1.1279951   -68.078744   -69.820594   -27.507636            0 
      97            0            0            0            0    1.1197991    1.1239195   -67.372637   -69.352518   -28.095628            0 
      98            0            0            0            0    1.1151739     1.119763   -66.531544   -68.783559   -28.692461            0 
      99            0            0            0            0    1.1104352    1.1155132   -65.554565   -68.099037   -29.296365            0 
     100            0            0            0            0    1.1057082    1.1112462   -64.468796   -67.300321    -29.89263            0 
Loop time of 0.317978 on 1 procs for 100 steps with 1 atoms

Performance: 27171.679 tau/day, 314.487 timesteps/s
21.1% CPU use with 1 MPI tasks x no OpenMP threads

MPI task timing breakdown:
Section |  min time  |  avg time  |  max time  |%varavg| %total
---------------------------------------------------------------
Pair    | 6.3658e-05 | 6.3658e-05 | 6.3658e-05 |   0.0 |  0.02
Neigh   | 4.0531e-06 | 4.0531e-06 | 4.0531e-06 |   0.0 |  0.00
Comm    | 4.6253e-05 | 4.6253e-05 | 4.6253e-05 |   0.0 |  0.01
Output  | 0.017527   | 0.017527   | 0.017527   |   0.0 |  5.51
Modify  | 0.30018    | 0.30018    | 0.30018    |   0.0 | 94.40
Other   |            | 0.0001559  |            |       |  0.05

Nlocal:    1 ave 1 max 1 min
Histogram: 1 0 0 0 0 0 0 0 0 0
Nghost:    0 ave 0 max 0 min
Histogram: 1 0 0 0 0 0 0 0 0 0
Neighs:    0 ave 0 max 0 min
Histogram: 1 0 0 0 0 0 0 0 0 0

Total # of neighbors = 0
Ave neighs/atom = 0
Neighbor list builds = 1
Dangerous builds = 0
Total wall time: 0:00:00
