LAMMPS data file via write_data, version 7 Dec 2015, timestep = 100000

1557 atoms
13 atom types
1630 bonds
24 bond types
3035 angles
60 angle types
6952 dihedrals
177 dihedral types

-6.7175793214761086e+01 1.6108112302877836e+02 xlo xhi
4.2293664075589732e+01 7.9716768451035719e+01 ylo yhi
2.5643956005859678e+01 9.6737175227086652e+01 zlo zhi

Masses

1 1.008
2 15.9994
3 15.9994
4 12.011
5 12.011
6 15.9994
7 1.008
8 12.011
9 12.011
10 1.008
11 15.9994
12 12.011
13 12.011

Pair Coeffs # lj/charmm/coul/charmm

1 0.046 0.40001 0.046 0.40001
2 0.1 2.93997 0.1 2.93997
3 0.1 2.93997 0.1 2.93997
4 0.032 3.56359 0.01 3.38542
5 0.032 3.56359 0.01 3.38542
6 0.1921 3.14487 0.1921 3.14487
7 0.045 2.38761 0.045 2.38761
8 0.032 3.56359 0.01 3.38542
9 0.056 3.58141 0.01 3.38542
10 0.035 2.38761 0.035 2.38761
11 0.1 2.93997 0.1 2.93997
12 0.032 3.56359 0.01 3.38542
13 0.032 3.56359 0.01 3.38542

Bond Coeffs # harmonic

1 309 1.111
2 545 0.96
3 410 1.41
4 360 1.425
5 309 1.111
6 222.5 1.48
7 309 1.111
8 309 1.111
9 309 1.111
10 222.5 1.49
11 360 1.415
12 222.5 1.48
13 222.5 1.48
14 428 1.42
15 428 1.4
16 360 1.425
17 222.5 1.5
18 360 1.415
19 428 1.4
20 222.5 1.48
21 222.5 1.5
22 309 1.111
23 428 1.4
24 360 1.425

Angle Coeffs # charmm

1 55 108.89 0 0
2 50 109 0 0
3 50 109 0 0
4 34.5 110.1 22.53 2.179
5 34.5 110.1 22.53 2.179
6 75.7 110.1 0 0
7 34.5 110.1 22.53 2.179
8 34.5 110.1 22.53 2.179
9 45 109 0 0
10 34.5 110.1 22.53 2.179
11 55 108.89 0 0
12 35.5 109 5.4 1.802
13 60 109.5 0 0
14 53.35 111 8 2.561
15 45 109 0 0
16 45 109 0 0
17 45 110 0 0
18 45 109 0 0
19 75.7 110.1 0 0
20 45 106 0 0
21 45 105 0 0
22 75.7 110.1 0 0
23 95 109.7 0 0
24 53.35 111 8 2.561
25 75.7 110.1 0 0
26 45 109.5 0 0
27 34.5 110.1 22.53 2.179
28 45 105 0 0
29 34.5 110.1 22.53 2.179
30 60 109.5 0 0
31 53.35 111 8 2.561
32 45 109.5 0 0
33 50 109.2 0 0
34 53.35 111 8 2.561
35 34.5 110.1 22.53 2.179
36 45 109 0 0
37 45 116.5 0 0
38 34.5 110.1 22.53 2.179
39 50 109.2 0 0
40 75.7 110.1 0 0
41 60 109.5 0 0
42 60 109.5 0 0
43 45 109 0 0
44 45 116.5 0 0
45 45 110 0 0
46 53.35 111 8 2.561
47 75.7 107 0 0
48 45 109.5 0 0
49 34.5 110.1 22.53 2.179
50 95 109.7 0 0
51 45 109 0 0
52 53.35 111 8 2.561
53 45 116.5 0 0
54 34.5 110.1 22.53 2.179
55 34.5 110.1 22.53 2.179
56 34.5 110.1 22.53 2.179
57 55 108.89 0 0
58 45 106 0 0
59 50 109 0 0
60 75.7 110.1 0 0

Dihedral Coeffs # charmm

1 0.2 3 0 1
2 0.2 3 0 1
3 0.41 1 180 1
4 0.89 2 0 1
5 0.05 3 0 1
6 0.284 3 0 1
7 0.2 3 0 1
8 0.284 3 0 1
9 0.2 3 0 1
10 0.2 3 180 1
11 0.29 1 0 1
12 0.62 2 0 1
13 0.05 3 0 1
14 0.2 3 180 1
15 0.29 1 0 1
16 0.62 2 0 1
17 0.05 3 0 1
18 0.2 3 0 1
19 0.2 3 0 1
20 0.13 1 180 1
21 0.25 2 180 1
22 0.06 3 180 1
23 0.2 3 0 1
24 0.2 3 180 1
25 0.284 3 0 1
26 0.18 3 0 1
27 0.284 3 0 1
28 0.2 3 0 1
29 0.75 1 180 1
30 0.17 2 0 1
31 0.25 3 180 1
32 0.31 3 180 1
33 0.2 3 0 1
34 0.18 3 0 1
35 31 3 180 1
36 0.14 3 0 1
37 0.41 1 180 1
38 0.66 2 180 1
39 1.6 3 0 1
40 0.14 3 0 1
41 0.41 1 180 1
42 0.89 2 0 1
43 0.05 3 0 1
44 0.05 1 180 1
45 0.91 2 0 1
46 1.27 3 180 1
47 0.29 1 0 1
48 0.62 2 0 1
49 0.05 3 0 1
50 0.13 1 180 1
51 0.25 2 180 1
52 0.06 3 180 1
53 0.2 3 0 1
54 2.65 1 180 1
55 0 2 0 1
56 0.13 3 180 1
57 0.29 1 0 1
58 0.14 3 0 1
59 2.65 1 180 1
60 0 2 0 1
61 0.13 3 180 1
62 2.65 1 180 1
63 0 2 0 1
64 0.13 3 180 1
65 0.2 3 0 1
66 0.2 3 0 1
67 0.2 3 0 1
68 0.2 3 0 1
69 0.2 3 0 1
70 0.41 1 180 1
71 0.66 2 180 1
72 1.6 3 0 1
73 0.284 3 0 1
74 0.2 3 0 1
75 0.2 3 0 1
76 0.2 3 0 1
77 2.75 1 180 1
78 0.26 2 180 1
79 0.1 3 0 1
80 0.19 3 180 1
81 0.2 3 0 1
82 0.2 3 0 1
83 0.05 1 180 1
84 0.91 2 0 1
85 1.27 3 180 1
86 0.19 3 180 1
87 0.2 3 0 1
88 1.36 1 180 1
89 0.16 2 0 1
90 1.01 3 0 1
91 0.2 3 0 1
92 0.2 3 0 1
93 0.13 1 180 1
94 0.25 2 180 1
95 0.06 3 180 1
96 0.2 3 0 1
97 0.2 3 180 1
98 0.2 3 180 1
99 0.2 3 0 1
100 0.2 3 0 1
101 0.2 3 0 1
102 0.2 3 0 1
103 1.36 1 180 1
104 0.16 2 0 1
105 1.01 3 0 1
106 0.14 3 0 1
107 0.284 3 0 1
108 0.2 3 180 1
109 2.65 1 180 1
110 0 2 0 1
111 0.13 3 180 1
112 0.284 3 0 1
113 0.2 3 0 1
114 1.36 1 180 1
115 0.16 2 0 1
116 1.01 3 0 1
117 0.18 3 0 1
118 0.13 1 180 1
119 0.25 2 180 1
120 0.06 3 180 1
121 0.2 3 0 1
122 2.65 1 180 1
123 0 2 0 1
124 0.13 3 180 1
125 0.2 3 0 1
126 0.2 3 0 1
127 0.284 3 0 1
128 0.2 3 0 1
129 0.2 3 0 1
130 0.19 3 180 1
131 0.2 3 0 1
132 0.14 3 0 1
133 0.2 3 0 1
134 0.29 1 0 1
135 0.62 2 0 1
136 0.05 3 0 1
137 0.14 3 0 1
138 0.2 3 0 1
139 0.19 3 180 1
140 0.31 3 180 1
141 0.19 3 180 1
142 1.55 1 0 1
143 1.17 2 0 1
144 1.07 3 0 1
145 0.18 3 0 1
146 0.2 3 0 1
147 0.2 3 180 1
148 2.75 1 180 1
149 0.26 2 180 1
150 0.1 3 0 1
151 0.2 3 180 1
152 0.31 3 180 1
153 0.2 3 0 1
154 0.2 3 0 1
155 0.29 1 0 1
156 0.62 2 0 1
157 0.05 3 0 1
158 0.2 3 0 1
159 0.2 3 0 1
160 0.2 3 0 1
161 0.2 3 0 1
162 0.2 3 0 1
163 1.55 1 0 1
164 1.17 2 0 1
165 1.07 3 0 1
166 0.2 3 180 1
167 0.2 3 0 1
168 0.2 3 0 1
169 2.65 1 180 1
170 0 2 0 1
171 0.13 3 180 1
172 0.14 3 0 1
173 0.2 3 0 1
174 0.2 3 0 1
175 0.41 1 180 1
176 0.89 2 0 1
177 0.05 3 0 1

Atoms # full

249 1 1 4.1999999999999998e-01 -4.6616633740298745e+01 4.6135081068430345e+01 5.5652906532115395e+01 0 0 0
251 1 7 8.9999999999999997e-02 -4.6518581486191707e+01 4.7963768476656895e+01 5.8481369696442378e+01 0 0 0
247 1 10 8.9999999999999997e-02 -4.5502060056157063e+01 4.8406007588397799e+01 5.5902603473519463e+01 0 0 0
248 1 6 -6.5000000000000002e-01 -4.6274534857218299e+01 4.6556809462917556e+01 5.6462808302497848e+01 0 0 0
238 1 12 8.9999999999999997e-02 -4.5515261480886146e+01 4.7976107837553911e+01 5.9015994106926698e+01 0 0 0
213 1 2 -3.5999999999999999e-01 -4.5428907570055735e+01 4.6972449246436760e+01 6.0133966635586667e+01 0 0 0
245 1 1 4.1999999999999998e-01 -4.4944685376502022e+01 5.0695490089776307e+01 5.7880549128047676e+01 0 0 0
240 1 7 8.9999999999999997e-02 -4.5773934111391888e+01 4.9475493562273570e+01 6.0351365568734515e+01 0 0 0
263 1 7 8.9999999999999997e-02 -4.0617967097506416e+01 5.2114895468311282e+01 5.9034441621378484e+01 0 0 0
235 1 5 1.4000000000000001e-01 -4.5132394264820576e+01 4.9385886131424549e+01 5.9480441418475401e+01 0 0 0
242 1 9 5.0000000000000003e-02 -4.5174278060215954e+01 4.7438028342301507e+01 5.6335618129158199e+01 0 0 0
241 1 8 1.1000000000000000e-01 -4.4570730605367345e+01 4.7713455529025353e+01 5.7744516176834274e+01 0 0 0
246 1 10 8.9999999999999997e-02 -4.4414787681204302e+01 4.7022289656866313e+01 5.5603760577521093e+01 0 0 0
271 1 10 8.9999999999999997e-02 -3.8872108658290244e+01 4.8023944641567020e+01 5.5921231341631426e+01 0 0 0
243 1 7 8.9999999999999997e-02 -4.4138313854444981e+01 4.6715673993716777e+01 5.8033498889615785e+01 0 0 0
232 1 3 -4.0000000000000002e-01 -4.3488247364501262e+01 4.8668191293723950e+01 5.7411777521678495e+01 0 0 0
234 1 5 1.4000000000000001e-01 -4.3607168484841459e+01 4.9444806620966659e+01 5.9879105386393512e+01 0 0 0
233 1 4 2.8999999999999998e-01 -4.2764611697514368e+01 4.9038887422608674e+01 5.8555206000197813e+01 0 0 0
270 1 6 -6.5000000000000002e-01 -4.0982274993129444e+01 4.8125271179321906e+01 5.5618660910782317e+01 0 0 0
266 1 9 5.0000000000000003e-02 -3.9739631401606168e+01 4.8722915939720515e+01 5.6065991709164230e+01 0 0 0
296 1 1 4.1999999999999998e-01 -4.1761696421294985e+01 4.8554244950677933e+01 5.5998584639485372e+01 0 0 0
250 1 7 8.9999999999999997e-02 -4.2072597456969106e+01 4.8203888971311457e+01 5.8811325913029052e+01 0 0 0
267 1 7 8.9999999999999997e-02 -3.9960751798697039e+01 4.8303616074077752e+01 5.8289650788577887e+01 0 0 0
265 1 8 1.1000000000000000e-01 -3.9694309778650855e+01 4.9130667705231048e+01 5.7557660491734779e+01 0 0 0
261 1 12 8.9999999999999997e-02 -4.0648151431409666e+01 5.0401610442501294e+01 5.7704241992309818e+01 0 0 0
295 1 10 8.9999999999999997e-02 -3.9471837712022996e+01 4.9676270631294045e+01 5.5515539610900888e+01 0 0 0
260 1 6 -6.5000000000000002e-01 -4.0194105314649654e+01 5.0430653260351690e+01 6.0929526277935089e+01 0 0 0
239 1 6 -6.5000000000000002e-01 -4.5566061596221353e+01 5.0329617241124495e+01 5.8465318377504261e+01 0 0 0
259 1 5 1.4000000000000001e-01 -3.9933357138249804e+01 5.1428849648526558e+01 5.8578147128699193e+01 0 0 0
268 1 1 4.1999999999999998e-01 -4.1115664029494049e+01 5.0623825387482206e+01 6.0715026666728789e+01 0 0 0
258 1 5 1.4000000000000001e-01 -3.9236312986569416e+01 5.0703583564696352e+01 5.9832363573520695e+01 0 0 0
262 1 6 -6.5000000000000002e-01 -3.9038874902983068e+01 5.2295899380663421e+01 5.7760547376540366e+01 0 0 0
264 1 7 8.9999999999999997e-02 -4.0811790461714992e+01 5.0735196713130172e+01 5.6655476461449055e+01 0 0 0
237 1 7 8.9999999999999997e-02 -4.3370577488643434e+01 5.0475908736990611e+01 6.0197851709272065e+01 0 0 0
231 1 11 -3.5999999999999999e-01 -4.2050802590482604e+01 5.0182982108720388e+01 5.8275821102527658e+01 0 0 0
230 1 7 8.9999999999999997e-02 -4.7317993958433490e+01 4.7093100720751323e+01 6.1080914452423627e+01 0 0 0
236 1 6 -6.5000000000000002e-01 -4.3309113968440293e+01 4.8570347112459935e+01 6.1098183127890806e+01 0 0 0
219 1 12 8.9999999999999997e-02 -4.5841275436372811e+01 4.6597356277018619e+01 6.4287419898565105e+01 0 0 0
189 1 11 -3.5999999999999999e-01 -4.6781362877112734e+01 4.5928381832019973e+01 6.5144410072555161e+01 0 0 0
191 1 4 2.8999999999999998e-01 -4.6228675395323549e+01 4.5591902063598717e+01 6.6448626335300474e+01 0 0 0
208 1 7 8.9999999999999997e-02 -4.6303963815920959e+01 4.6559947296693913e+01 6.7043173034158087e+01 0 0 0
195 1 7 8.9999999999999997e-02 -4.7412370645208512e+01 4.3908071552301060e+01 6.6549453828062838e+01 0 0 0
192 1 5 1.4000000000000001e-01 -4.6973470448062386e+01 4.4563649249747819e+01 6.7377263226012005e+01 0 0 0
194 1 6 -6.5000000000000002e-01 -4.8144688132763051e+01 4.4991734363831881e+01 6.8118183994874613e+01 0 0 0
223 1 8 1.1000000000000000e-01 -4.6403938190563366e+01 4.7850022270100759e+01 6.3490154633364220e+01 0 0 0
225 1 7 8.9999999999999997e-02 -4.7497717132932387e+01 4.7722897029245409e+01 6.3396693029800865e+01 0 0 0
224 1 9 5.0000000000000003e-02 -4.6372854989034785e+01 4.9048318404509253e+01 6.4446901215659437e+01 0 0 0
228 1 6 -6.5000000000000002e-01 -4.7654715192785183e+01 4.9454441322171135e+01 6.5040523737772205e+01 0 0 0
254 1 1 4.1999999999999998e-01 -4.7857408475992493e+01 4.8998856188625538e+01 6.5942395523296469e+01 0 0 0
253 1 10 8.9999999999999997e-02 -4.5573883127426647e+01 4.9016085140139367e+01 6.5151461816386629e+01 0 0 0
193 1 5 1.4000000000000001e-01 -4.5908476895249947e+01 4.3627583340301861e+01 6.8030080336925465e+01 0 0 0
214 1 3 -4.0000000000000002e-01 -4.5624404219106999e+01 4.7954071602970529e+01 6.2235224347370753e+01 0 0 0
218 1 6 -6.5000000000000002e-01 -4.7479099615050153e+01 4.4948458491449657e+01 6.2380314594482776e+01 0 0 0
216 1 5 1.4000000000000001e-01 -4.6141039552371055e+01 4.5518697290621951e+01 6.1947159731929460e+01 0 0 0
217 1 5 1.4000000000000001e-01 -4.5267254387670320e+01 4.5613163238062789e+01 6.3305848763074195e+01 0 0 0
221 1 7 8.9999999999999997e-02 -4.5319937992117289e+01 4.4606581565286376e+01 6.3769879669870058e+01 0 0 0
226 1 1 4.1999999999999998e-01 -4.7755918225911387e+01 4.4049243710892462e+01 6.2112167834487856e+01 0 0 0
3 1 3 -4.0000000000000002e-01 -6.3275704793898583e+01 5.8139148468425894e+01 9.3569589165460584e+01 0 0 0
7 1 6 -6.5000000000000002e-01 -6.6244416691616266e+01 5.8221468633362015e+01 9.1403938885387362e+01 0 0 0
203 1 1 4.1999999999999998e-01 -4.5138690985181249e+01 4.3100892722539868e+01 6.6239133552924301e+01 0 0 0
227 1 1 4.1999999999999998e-01 -4.3716089716304808e+01 4.5929395107593514e+01 6.2029710156452943e+01 0 0 0
222 1 7 8.9999999999999997e-02 -4.4922701284577464e+01 4.6823017052182998e+01 6.4890026060849962e+01 0 0 0
197 1 6 -6.5000000000000002e-01 -4.5308178411718281e+01 4.2699661403985090e+01 6.7120332959083157e+01 0 0 0
190 1 3 -4.0000000000000002e-01 -4.4723111127170114e+01 4.5349376752768940e+01 6.6336499109302167e+01 0 0 0
199 1 8 1.1000000000000000e-01 -4.3996817249660943e+01 4.5241521864859145e+01 6.7560808640566364e+01 0 0 0
201 1 7 8.9999999999999997e-02 -4.3800988775083312e+01 4.6315209686457919e+01 6.7935632022083624e+01 0 0 0
220 1 6 -6.5000000000000002e-01 -4.3825895964390114e+01 4.5775790899367379e+01 6.2983530970246150e+01 0 0 0
205 1 10 8.9999999999999997e-02 -4.2919841484914322e+01 4.3513682182188738e+01 6.6600834921559638e+01 0 0 0
204 1 10 8.9999999999999997e-02 -4.2188184751696234e+01 4.4976544501266673e+01 6.6348509853009432e+01 0 0 0
200 1 9 5.0000000000000003e-02 -4.2756106869409948e+01 4.4479465698334550e+01 6.7171673176849566e+01 0 0 0
16 1 1 4.1999999999999998e-01 -6.6688300783783802e+01 5.8927893442224239e+01 9.1909756844186333e+01 0 0 0
229 1 10 8.9999999999999997e-02 -4.6071521165639936e+01 4.9835680334950943e+01 6.3617298244677066e+01 0 0 0
170 1 1 4.1999999999999998e-01 -5.5039053664397230e+01 4.6045339992490760e+01 7.4303418488329683e+01 0 0 0
144 1 6 -6.5000000000000002e-01 -5.4151477594992826e+01 4.5773239027971925e+01 7.3982292770442299e+01 0 0 0
169 1 10 8.9999999999999997e-02 -5.3833956518711062e+01 4.7460144760656760e+01 7.2956041976765945e+01 0 0 0
140 1 9 5.0000000000000003e-02 -5.3389908669162310e+01 4.7006215436524897e+01 7.3817289470579496e+01 0 0 0
139 1 8 1.1000000000000000e-01 -5.3172972625989395e+01 4.8003924770791670e+01 7.5043096966148866e+01 0 0 0
135 1 12 8.9999999999999997e-02 -5.4331879332261195e+01 4.8962333873109699e+01 7.5300262475028404e+01 0 0 0
138 1 7 8.9999999999999997e-02 -5.4732922595557149e+01 4.9136554574763480e+01 7.4273373083672894e+01 0 0 0
145 1 10 8.9999999999999997e-02 -5.2365401777687062e+01 4.6619938254245895e+01 7.3588550840895579e+01 0 0 0
198 1 7 8.9999999999999997e-02 -4.6295943281607784e+01 4.3038822770270066e+01 6.8824639685683692e+01 0 0 0
130 1 3 -4.0000000000000002e-01 -5.1976213204784045e+01 4.8811239686324868e+01 7.4904002245787382e+01 0 0 0
202 1 1 4.1999999999999998e-01 -4.8156823647076941e+01 4.4620322601403174e+01 6.9034167302745985e+01 0 0 0
171 1 2 -3.5999999999999999e-01 -4.5546706001881958e+01 4.5730374358436542e+01 6.9287628665180421e+01 0 0 0
210 1 7 8.9999999999999997e-02 -4.7519293454654090e+01 4.7001512033458887e+01 7.0056929625926145e+01 0 0 0
185 1 1 4.1999999999999998e-01 -4.9364156063657312e+01 4.4272351655220987e+01 7.1526825813364326e+01 0 0 0
178 1 6 -6.5000000000000002e-01 -4.8690947662056523e+01 4.4821626306920216e+01 7.1081474810503849e+01 0 0 0
175 1 5 1.4000000000000001e-01 -4.8047274823726241e+01 4.5867185904223135e+01 7.1840860170692537e+01 0 0 0
177 1 12 8.9999999999999997e-02 -4.7313261967997242e+01 4.5265060952917800e+01 7.3102459430670891e+01 0 0 0
180 1 7 8.9999999999999997e-02 -4.7930985951955599e+01 4.4416100919961423e+01 7.3414119457566542e+01 0 0 0
211 1 10 8.9999999999999997e-02 -4.6676325390347017e+01 4.2616938286974303e+01 7.3099091364017866e+01 0 0 0
179 1 7 8.9999999999999997e-02 -4.8812129977577129e+01 4.6602079933778775e+01 7.2211413078633541e+01 0 0 0
174 1 5 1.4000000000000001e-01 -4.7028799813313498e+01 4.6659789649733774e+01 7.0964552706736626e+01 0 0 0
147 1 11 -3.5999999999999999e-01 -4.7108623413979288e+01 4.6164548807556173e+01 7.4259925874443439e+01 0 0 0
166 1 7 8.9999999999999997e-02 -4.9131832299688703e+01 4.6583193836137426e+01 7.4328056568455622e+01 0 0 0
149 1 4 2.8999999999999998e-01 -4.8210806282834980e+01 4.6990941429310787e+01 7.4650802869914799e+01 0 0 0
176 1 6 -6.5000000000000002e-01 -4.6737211093662161e+01 4.7901343401894259e+01 7.1646093885288835e+01 0 0 0
184 1 1 4.1999999999999998e-01 -4.7360631714022915e+01 4.8031782620272125e+01 7.2420837697995779e+01 0 0 0
148 1 3 -4.0000000000000002e-01 -4.8041295746124860e+01 4.8236134550272901e+01 7.3913262708793312e+01 0 0 0
181 1 8 1.1000000000000000e-01 -4.5930459161198968e+01 4.4635183293619384e+01 7.2665400000794705e+01 0 0 0
182 1 9 5.0000000000000003e-02 -4.5809167381641579e+01 4.3198998016974109e+01 7.3314459942079822e+01 0 0 0
173 1 4 2.8999999999999998e-01 -4.5777974649702777e+01 4.5842142775397981e+01 7.0643978623792151e+01 0 0 0
172 1 3 -4.0000000000000002e-01 -4.5763177399146777e+01 4.4502598865649475e+01 7.1252157901613558e+01 0 0 0
186 1 6 -6.5000000000000002e-01 -4.5614178212284408e+01 4.3152785067128235e+01 7.4741988558487080e+01 0 0 0
159 1 7 8.9999999999999997e-02 -5.0106622674839194e+01 4.8499239080549664e+01 7.3771236956302602e+01 0 0 0
157 1 8 1.1000000000000000e-01 -4.9215586890462596e+01 4.9079407096289764e+01 7.3925648190960715e+01 0 0 0
162 1 10 8.9999999999999997e-02 -4.8634694987814925e+01 4.9732555576859163e+01 7.1909844001391306e+01 0 0 0
206 1 6 -6.5000000000000002e-01 -4.1792838126651930e+01 4.4360341732547134e+01 6.8269849963284472e+01 0 0 0
183 1 7 8.9999999999999997e-02 -4.5058210553668857e+01 4.5331174689891611e+01 7.3036447656387750e+01 0 0 0
212 1 1 4.1999999999999998e-01 -4.5068300270538572e+01 4.2378601545249218e+01 7.4990999209374564e+01 0 0 0
187 1 10 8.9999999999999997e-02 -4.4969353289385460e+01 4.2692670216807500e+01 7.2884963415929562e+01 0 0 0
196 1 12 8.9999999999999997e-02 -4.4893092204967665e+01 4.4621024415402651e+01 6.8604908401201342e+01 0 0 0
209 1 7 8.9999999999999997e-02 -4.4227338545100757e+01 4.4072724943738187e+01 6.9348330831668164e+01 0 0 0
207 1 1 4.1999999999999998e-01 -4.2148140386291203e+01 4.3866861332797228e+01 6.9036936627613343e+01 0 0 0
188 1 7 8.9999999999999997e-02 -4.4944042867342439e+01 4.6492822933829814e+01 7.1041246480819069e+01 0 0 0
143 1 1 4.1999999999999998e-01 -5.2806944755960977e+01 5.1156793349370524e+01 7.4474775606324741e+01 0 0 0
136 1 6 -6.5000000000000002e-01 -5.3597703557124561e+01 5.1352663223761915e+01 7.5065128791523804e+01 0 0 0
154 1 12 8.9999999999999997e-02 -4.9141712435835920e+01 4.9734658776077588e+01 7.5428426518419926e+01 0 0 0
158 1 9 5.0000000000000003e-02 -4.9130953661409706e+01 5.0183704987689204e+01 7.2821884558384440e+01 0 0 0
165 1 1 4.1999999999999998e-01 -5.0408830959048473e+01 5.1099349429806239e+01 7.1528973262041859e+01 0 0 0
164 1 6 -6.5000000000000002e-01 -5.0480798182328137e+01 5.0613370378430055e+01 7.2387398858401198e+01 0 0 0
163 1 10 8.9999999999999997e-02 -4.8541554385730443e+01 5.1085808915654525e+01 7.3192278451761098e+01 0 0 0
167 1 7 8.9999999999999997e-02 -4.8703774605363790e+01 5.0778281646178421e+01 7.5314403349419521e+01 0 0 0
119 1 1 4.1999999999999998e-01 -5.9659823190015693e+01 4.7299496813634846e+01 7.6766234000950433e+01 0 0 0
105 1 11 -3.5999999999999999e-01 -5.5492928157854386e+01 4.8430442756839916e+01 7.6040898985533758e+01 0 0 0
141 1 7 8.9999999999999997e-02 -5.3129287911191263e+01 4.7372481123861085e+01 7.5921607355007936e+01 0 0 0
120 1 10 8.9999999999999997e-02 -5.6165868700086001e+01 4.3643745689096775e+01 7.6497583829159538e+01 0 0 0
104 1 7 8.9999999999999997e-02 -5.9393286923404176e+01 4.5949298820284241e+01 8.0888811311890265e+01 0 0 0
113 1 6 -6.5000000000000002e-01 -5.8720050473885848e+01 4.7517768810841645e+01 7.6750495242414559e+01 0 0 0
106 1 3 -4.0000000000000002e-01 -5.6139414747480409e+01 4.6238718065843557e+01 7.6553600154635987e+01 0 0 0
121 1 10 8.9999999999999997e-02 -5.7936839932541801e+01 4.4025774839931657e+01 7.6660678395513870e+01 0 0 0
107 1 4 2.8999999999999998e-01 -5.5625055661607497e+01 4.7487814834752534e+01 7.7095849796664950e+01 0 0 0
116 1 9 5.0000000000000003e-02 -5.6959459233883152e+01 4.3939334869359122e+01 7.7237026197558393e+01 0 0 0
124 1 7 8.9999999999999997e-02 -5.4615435603012543e+01 4.7275633024852560e+01 7.7581930982174285e+01 0 0 0
108 1 5 1.4000000000000001e-01 -5.6636357871433098e+01 4.8152698823592026e+01 7.8025127318870361e+01 0 0 0
115 1 8 1.1000000000000000e-01 -5.6524250297481686e+01 4.5316189348828829e+01 7.7723109961135833e+01 0 0 0
109 1 5 1.4000000000000001e-01 -5.8033865255064789e+01 4.7351477968246130e+01 7.8039856831215204e+01 0 0 0
122 1 6 -6.5000000000000002e-01 -5.7024830195431484e+01 4.2896456505975245e+01 7.8097529128043462e+01 0 0 0
117 1 7 8.9999999999999997e-02 -5.5724278061775706e+01 4.5251207762402998e+01 7.8388856257963056e+01 0 0 0
111 1 7 8.9999999999999997e-02 -5.6975560629541555e+01 4.9161904005460308e+01 7.7659495181650598e+01 0 0 0
125 1 7 8.9999999999999997e-02 -5.8612061223745066e+01 4.5244261905406553e+01 7.8098971095317694e+01 0 0 0
123 1 1 4.1999999999999998e-01 -5.6297189538641270e+01 4.2297328307966957e+01 7.7957464068465001e+01 0 0 0
112 1 12 8.9999999999999997e-02 -5.7788930785465119e+01 4.5925028135964318e+01 7.8485269104686935e+01 0 0 0
114 1 7 8.9999999999999997e-02 -5.8720969160969034e+01 4.7874385525138273e+01 7.8735036869749067e+01 0 0 0
89 1 4 2.8999999999999998e-01 -5.8304296786142103e+01 4.6226256151982838e+01 8.1040558218941243e+01 0 0 0
110 1 6 -6.5000000000000002e-01 -5.6004768615447837e+01 4.8372312091540401e+01 7.9301881232246245e+01 0 0 0
88 1 3 -4.0000000000000002e-01 -5.8141243242728414e+01 4.7641980190483743e+01 8.0858431954038409e+01 0 0 0
87 1 2 -3.5999999999999999e-01 -5.7590511755966574e+01 4.5608283072705518e+01 7.9972187919285133e+01 0 0 0
101 1 1 4.1999999999999998e-01 -5.5435894839838916e+01 4.6774448339615063e+01 8.1559930284717737e+01 0 0 0
118 1 1 4.1999999999999998e-01 -5.6750156720650850e+01 4.8348042984206323e+01 7.9987918120577987e+01 0 0 0
134 1 6 -6.5000000000000002e-01 -5.2925945245613526e+01 4.9528972525863061e+01 7.8219018537309864e+01 0 0 0
98 1 9 5.0000000000000003e-02 -5.9025363923235069e+01 4.9852556907906411e+01 8.1832552253718049e+01 0 0 0
103 1 10 8.9999999999999997e-02 -5.9492541782208953e+01 4.9996502667537811e+01 8.0810792943945287e+01 0 0 0
133 1 5 1.4000000000000001e-01 -5.3811822935058224e+01 5.0255622562311999e+01 7.6008513096475085e+01 0 0 0
161 1 1 4.1999999999999998e-01 -4.6600888736472115e+01 4.9408402464180305e+01 7.5258046314020348e+01 0 0 0
131 1 4 2.8999999999999998e-01 -5.1529101661029202e+01 4.9287314701462130e+01 7.6196235752660996e+01 0 0 0
150 1 5 1.4000000000000001e-01 -4.8322592460085623e+01 4.7381915860333365e+01 7.6185042516674258e+01 0 0 0
151 1 5 1.4000000000000001e-01 -4.8225859247824616e+01 4.8980827642141016e+01 7.6367887436899522e+01 0 0 0
146 1 7 8.9999999999999997e-02 -5.1138361441679834e+01 4.8420497113602352e+01 7.6840270534115760e+01 0 0 0
153 1 7 8.9999999999999997e-02 -4.7475241024889058e+01 4.6967349188198739e+01 7.6636580063868493e+01 0 0 0
152 1 6 -6.5000000000000002e-01 -4.9472093697903908e+01 4.6786491690475046e+01 7.6954390328100786e+01 0 0 0
160 1 1 4.1999999999999998e-01 -4.9497792017380633e+01 4.6972944379870682e+01 7.7936677709787773e+01 0 0 0
156 1 7 8.9999999999999997e-02 -4.8574796305032407e+01 4.9306861187011386e+01 7.7410455165568607e+01 0 0 0
155 1 6 -6.5000000000000002e-01 -4.6875645942825884e+01 4.9519375189485899e+01 7.6189465673974425e+01 0 0 0
142 1 1 4.1999999999999998e-01 -5.3750629082494065e+01 4.9802569724077841e+01 7.8601313021716820e+01 0 0 0
132 1 5 1.4000000000000001e-01 -5.2590823691818180e+01 5.0104316848567009e+01 7.6918477579797951e+01 0 0 0
137 1 7 8.9999999999999997e-02 -5.4651065579606907e+01 5.0622238982693190e+01 7.6676972734207823e+01 0 0 0
168 1 7 8.9999999999999997e-02 -5.2226698543842218e+01 5.1144297928743804e+01 7.7193998274123445e+01 0 0 0
127 1 10 8.9999999999999997e-02 -5.8009905629149230e+01 5.0343461231523548e+01 8.1818963683718280e+01 0 0 0
129 1 2 -3.5999999999999999e-01 -5.0424442234525891e+01 5.0181521619210024e+01 7.5926465016160520e+01 0 0 0
99 1 7 8.9999999999999997e-02 -5.9807767736706310e+01 4.7841389005278202e+01 8.2197653841024007e+01 0 0 0
68 1 6 -6.5000000000000002e-01 -6.0076607376692763e+01 4.8777006089635748e+01 8.7499582813684427e+01 0 0 0
76 1 1 4.1999999999999998e-01 -6.0533910419603586e+01 4.8391423915370062e+01 8.8284845094353400e+01 0 0 0
97 1 8 1.1000000000000000e-01 -5.8776367555289660e+01 4.8287224631393684e+01 8.2008586002505794e+01 0 0 0
90 1 5 1.4000000000000001e-01 -5.7696386843694334e+01 4.5637842979560759e+01 8.2321828054591236e+01 0 0 0
126 1 7 8.9999999999999997e-02 -5.6950813021298615e+01 4.4799399738453197e+01 8.2070320942415719e+01 0 0 0
94 1 6 -6.5000000000000002e-01 -5.5716854056936555e+01 4.7282605616060941e+01 8.2346249081512838e+01 0 0 0
91 1 5 1.4000000000000001e-01 -5.6952599058317830e+01 4.6827072115489209e+01 8.3022036326039654e+01 0 0 0
92 1 6 -6.5000000000000002e-01 -5.8655073621898069e+01 4.4949713815528057e+01 8.3214844026019492e+01 0 0 0
100 1 1 4.1999999999999998e-01 -5.8505259717926059e+01 4.4020032156851642e+01 8.3226709182491319e+01 0 0 0
69 1 7 8.9999999999999997e-02 -5.9404664478823285e+01 4.7004884385286758e+01 8.6941866014288877e+01 0 0 0
63 1 11 -3.5999999999999999e-01 -5.8749192652955280e+01 4.7829139371217060e+01 8.4506416212640573e+01 0 0 0
66 1 5 1.4000000000000001e-01 -5.8893673645695543e+01 4.7964414141388723e+01 8.7114816458005421e+01 0 0 0
93 1 12 8.9999999999999997e-02 -5.7928569302649876e+01 4.8007871044832491e+01 8.3257335159992465e+01 0 0 0
96 1 7 8.9999999999999997e-02 -5.7340312315733250e+01 4.8914310059496323e+01 8.3454538961704102e+01 0 0 0
95 1 7 8.9999999999999997e-02 -5.6530334146544803e+01 4.6546456318441116e+01 8.3987323676498747e+01 0 0 0
64 1 3 -4.0000000000000002e-01 -5.6820424603570828e+01 4.8107469500971533e+01 8.5707257562870851e+01 0 0 0
65 1 4 2.8999999999999998e-01 -5.8238199530097091e+01 4.8276436212295174e+01 8.5687061158268634e+01 0 0 0
78 1 10 8.9999999999999997e-02 -5.4227995443633830e+01 4.8520748526599235e+01 8.5776950965478747e+01 0 0 0
74 1 9 5.0000000000000003e-02 -5.4605007149699070e+01 4.8643178826418271e+01 8.6799484934836144e+01 0 0 0
77 1 1 4.1999999999999998e-01 -5.6946332127490216e+01 4.6222479153197604e+01 8.6955970373488839e+01 0 0 0
73 1 8 1.1000000000000000e-01 -5.6162503199323773e+01 4.9030702478663102e+01 8.6677796025342687e+01 0 0 0
82 1 7 8.9999999999999997e-02 -5.8368147326081498e+01 4.9378164811716736e+01 8.5623145527566166e+01 0 0 0
79 1 10 8.9999999999999997e-02 -5.4478577892481781e+01 4.7707339189729502e+01 8.7395167462059518e+01 0 0 0
71 1 6 -6.5000000000000002e-01 -5.7006939538258052e+01 4.6447793272079537e+01 8.7878361355217621e+01 0 0 0
67 1 5 1.4000000000000001e-01 -5.7750097938862567e+01 4.7664668994380953e+01 8.8123436119070050e+01 0 0 0
72 1 7 8.9999999999999997e-02 -5.8224592447554954e+01 4.7513110406904140e+01 8.9160102776456142e+01 0 0 0
70 1 12 8.9999999999999997e-02 -5.6922691698929320e+01 4.8967198219429093e+01 8.8013241887974047e+01 0 0 0
83 1 7 8.9999999999999997e-02 -5.6135452225525654e+01 4.8958980254432177e+01 8.8816366360609948e+01 0 0 0
102 1 6 -6.5000000000000002e-01 -5.9918779795104854e+01 5.0495219121003302e+01 8.2745596347161566e+01 0 0 0
59 1 1 4.1999999999999998e-01 -6.0489635730347942e+01 4.9980683783834309e+01 8.8884763793272541e+01 0 0 0
36 1 10 8.9999999999999997e-02 -6.1027425754304289e+01 5.6092521509570538e+01 8.8001488466491736e+01 0 0 0
53 1 7 8.9999999999999997e-02 -6.0926382020932706e+01 5.2633556299397760e+01 8.9399381807293665e+01 0 0 0
52 1 6 -6.5000000000000002e-01 -6.1076636380581640e+01 5.0598163754104505e+01 8.9334768268642605e+01 0 0 0
32 1 9 5.0000000000000003e-02 -6.1108346517661595e+01 5.6854951469495404e+01 8.8888602607186428e+01 0 0 0
37 1 10 8.9999999999999997e-02 -6.0136533559516039e+01 5.7335290125486893e+01 8.9144092012480513e+01 0 0 0
128 1 1 4.1999999999999998e-01 -5.9595600133365217e+01 5.1141178174248275e+01 8.3392507084951347e+01 0 0 0
38 1 6 -6.5000000000000002e-01 -6.2020866886608829e+01 5.7986798375596287e+01 8.8630262710895153e+01 0 0 0
80 1 6 -6.5000000000000002e-01 -5.3740745074201563e+01 4.9584804678101690e+01 8.7364052638201215e+01 0 0 0
81 1 1 4.1999999999999998e-01 -5.3955733977874090e+01 4.9563353099140656e+01 8.8317139982470778e+01 0 0 0
75 1 7 8.9999999999999997e-02 -5.6133531896164499e+01 5.0029646220495920e+01 8.6335905618477966e+01 0 0 0
45 1 2 -3.5999999999999999e-01 -5.7682365965486731e+01 5.0159899977457123e+01 8.8050200661091267e+01 0 0 0
84 1 7 8.9999999999999997e-02 -5.9422448153565902e+01 5.1711945703011395e+01 8.7713731867168605e+01 0 0 0
48 1 5 1.4000000000000001e-01 -5.9027442358041341e+01 5.1901398988905868e+01 8.8748111866933058e+01 0 0 0
50 1 6 -6.5000000000000002e-01 -5.8619352850873220e+01 5.3307383598378983e+01 8.8722657472841689e+01 0 0 0
47 1 4 2.8999999999999998e-01 -5.7958088477872117e+01 5.0942306674191869e+01 8.9192510955272553e+01 0 0 0
39 1 1 4.1999999999999998e-01 -6.1594340834759187e+01 5.8860603043193159e+01 8.8584624658294203e+01 0 0 0
85 1 10 8.9999999999999997e-02 -5.9594525194015837e+01 4.9569834393441376e+01 9.2863623688572943e+01 0 0 0
61 1 10 8.9999999999999997e-02 -5.7763558323922688e+01 4.9785534181268901e+01 9.2888886132803691e+01 0 0 0
49 1 5 1.4000000000000001e-01 -6.0326162375036702e+01 5.1760440419978714e+01 8.9701849006687951e+01 0 0 0
33 1 7 8.9999999999999997e-02 -6.2467144480037653e+01 5.5542215237413998e+01 9.0028216941001716e+01 0 0 0
31 1 8 1.1000000000000000e-01 -6.1467910567151023e+01 5.6045585138558152e+01 9.0164679411222394e+01 0 0 0
22 1 3 -4.0000000000000002e-01 -6.0445919370637618e+01 5.5049304117387273e+01 9.0396468935369597e+01 0 0 0
40 1 7 8.9999999999999997e-02 -6.1685443649613930e+01 5.3665945404666807e+01 9.1475570153389754e+01 0 0 0
23 1 4 2.8999999999999998e-01 -6.0757542883162351e+01 5.4260060679674048e+01 9.1541622652939267e+01 0 0 0
26 1 6 -6.5000000000000002e-01 -6.2100659296070532e+01 5.5038456817865388e+01 9.3676980900020624e+01 0 0 0
24 1 5 1.4000000000000001e-01 -6.0887289634534220e+01 5.5181519665455333e+01 9.2851406886777056e+01 0 0 0
17 1 1 4.1999999999999998e-01 -6.4748570417463469e+01 5.5611463496426907e+01 9.3997113947777194e+01 0 0 0
34 1 1 4.1999999999999998e-01 -6.2499720358991461e+01 5.5832255197718681e+01 9.4066016425766705e+01 0 0 0
9 1 6 -6.5000000000000002e-01 -6.5098848465960700e+01 5.6306420561078554e+01 9.4545572479438974e+01 0 0 0
25 1 5 1.4000000000000001e-01 -6.0716413281282797e+01 5.6651359587186619e+01 9.2480742413815136e+01 0 0 0
54 1 7 8.9999999999999997e-02 -6.0832654509900877e+01 5.1443726061281801e+01 9.1822156887894579e+01 0 0 0
51 1 12 8.9999999999999997e-02 -5.9994683357116735e+01 5.1902639702606486e+01 9.1189378758694559e+01 0 0 0