LAMMPS Atom File

         4499 atoms
         2998 bonds
         1499 angles
            0 dihedrals
            0 impropers

        4 atom types
        1 bond types
        1 angle types

     0.02645   35.53280  xlo xhi
     0.02645   35.53280  ylo yhi
     0.02641   35.47360  zlo zhi

Masses

	1	15.9994
	2	1.00794
	3	22.9898
	4	35.4530

Atoms

      1    1  1 -0.8472 11.6379 28.9296 22.8462
      2    1  2  0.4236 12.1833 29.7468 23.1547
      3    1  2  0.4236 11.9574 28.6832 21.9285
      4    2  1 -0.8472 1.37921 29.5644 23.4489
      5    2  2  0.4236 2.06012 29.4544 22.7346
      6    2  2  0.4236 0.492934 29.2634 23.0887
      7    3  1 -0.8472 30.2772 15.8567 22.3916
      8    3  2  0.4236 30.5904 15.4255 23.2054
      9    3  2  0.4236 29.9129 16.7236 22.7205
     10    4  1 -0.8472 11.62 6.18028 0.102367
     11    4  2  0.4236 11.7743 5.37126 34.961
     12    4  2  0.4236 10.6277 6.24941 0.309231
     13    5  1 -0.8472 8.8319 6.64865 19.6995
     14    5  2  0.4236 8.45248 6.14532 18.9439
     15    5  2  0.4236 9.84404 6.64009 19.6728
     16    6  1 -0.8472 3.10007 29.1834 21.4356
     17    6  2  0.4236 3.51972 29.8391 20.7606
     18    6  2  0.4236 2.98452 28.3485 20.9711
     19    7  1 -0.8472 23.2771 11.3018 31.1678
     20    7  2  0.4236 23.5742 10.3857 31.3917
     21    7  2  0.4236 24.0377 11.7412 30.6704
     22    8  1 -0.8472 11.288 10.6405 29.3771
     23    8  2  0.4236 10.9961 11.4154 28.8108
     24    8  2  0.4236 11.197 10.9932 30.3253
     25    9  1 -0.8472 27.5405 25.3016 19.6749
     26    9  2  0.4236 26.9738 26.0737 20.0235
     27    9  2  0.4236 27.2967 25.015 18.7195
     28   10  1 -0.8472 10.9411 34.8983 19.4292
     29   10  2  0.4236 10.3458 0.26945 19.3719
     30   10  2  0.4236 11.0871 34.6336 18.4689
     31   11  1 -0.8472 21.0568 5.47179 34.0983
     32   11  2  0.4236 20.923 6.48201 34.122
     33   11  2  0.4236 21.7784 5.22374 34.7568
     34   12  1 -0.8472 12.2036 29.1084 16.2048
     35   12  2  0.4236 12.4026 28.3044 16.8579
     36   12  2  0.4236 11.5392 28.7567 15.5703
     37   13  1 -0.8472 14.9002 5.58414 2.01419
     38   13  2  0.4236 14.9184 4.71957 1.54541
     39   13  2  0.4236 14.2423 5.51299 2.78269
     40   14  1 -0.8472 15.5064 21.9208 24.0266
     41   14  2  0.4236 15.8 22.7853 23.5283
     42   14  2  0.4236 16.3314 21.6747 24.5701
     43   15  1 -0.8472 12.006 19.4593 11.2445
     44   15  2  0.4236 12.8694 19.3217 11.7356
     45   15  2  0.4236 12.3624 19.7581 10.3484
     46   16  1 -0.8472 19.3161 24.6382 15.7407
     47   16  2  0.4236 19.0981 25.2553 14.9872
     48   16  2  0.4236 20.0317 24.0227 15.4167
     49   17  1 -0.8472 30.7843 11.5544 13.5837
     50   17  2  0.4236 29.9514 11.6678 13.0021
     51   17  2  0.4236 30.5558 11.8514 14.5466
     52   18  1 -0.8472 19.997 12.6467 25.8046
     53   18  2  0.4236 20.1204 13.2734 26.5805
     54   18  2  0.4236 19.1324 12.1075 25.9886
     55   19  1 -0.8472 4.02444 19.1261 32.0138
     56   19  2  0.4236 3.75654 18.1589 31.7219
     57   19  2  0.4236 3.20078 19.5429 32.3388
     58   20  1 -0.8472 17.8602 29.6691 34.3656
     59   20  2  0.4236 17.7683 30.5466 33.921
     60   20  2  0.4236 17.3185 28.9594 33.8438
     61   21  1 -0.8472 7.22195 26.7166 35.2137
     62   21  2  0.4236 6.56285 26.6062 34.4906
     63   21  2  0.4236 6.99983 26.0341 0.499899
     64   22  1 -0.8472 9.7401 8.40494 28.9735
     65   22  2  0.4236 9.04561 8.83497 28.324
     66   22  2  0.4236 10.379 9.08173 29.2479
     67   23  1 -0.8472 17.8311 8.15966 3.86625
     68   23  2  0.4236 17.4751 7.95866 2.89476
     69   23  2  0.4236 17.2999 7.54587 4.46049
     70   24  1 -0.8472 13.4232 11.0518 21.0316
     71   24  2  0.4236 13.3684 11.8329 20.357
     72   24  2  0.4236 13.9259 11.3683 21.8641
     73   25  1 -0.8472 28.9772 2.42366 6.26984
     74   25  2  0.4236 29.9883 2.32608 6.13874
     75   25  2  0.4236 28.8217 2.3435 7.27452
     76   26  1 -0.8472 22.4415 3.80201 4.60705
     77   26  2  0.4236 22.111 3.23299 5.34926
     78   26  2  0.4236 21.7249 4.34691 4.21943
     79   27  1 -0.8472 16.0518 20.6701 10.7595
     80   27  2  0.4236 15.3845 20.1282 11.2764
     81   27  2  0.4236 16.094 20.3155 9.80599
     82   28  1 -0.8472 18.1567 5.73275 27.3532
     83   28  2  0.4236 17.822 6.23591 26.5033
     84   28  2  0.4236 19.1546 5.87474 27.341
     85   29  1 -0.8472 20.8198 25.7025 22.8148
     86   29  2  0.4236 21.6092 25.8913 22.2001
     87   29  2  0.4236 21.0943 25.9166 23.731
     88   30  1 -0.8472 11.3037 0.900114 4.83353
     89   30  2  0.4236 12.0932 0.444528 5.29229
     90   30  2  0.4236 11.0962 1.78786 5.2547
     91   31  1 -0.8472 7.14416 30.0661 24.62
     92   31  2  0.4236 6.22411 30.3758 24.352
     93   31  2  0.4236 7.80745 30.2817 23.8319
     94   32  1 -0.8472 27.7669 33.6083 1.23178
     95   32  2  0.4236 27.8252 34.5064 1.71867
     96   32  2  0.4236 28.0426 32.9226 1.91098
     97   33  1 -0.8472 34.5287 26.3925 10.7999
     98   33  2  0.4236 34.4141 25.3881 10.6376
     99   33  2  0.4236 34.5886 26.8699 9.93414
    100   34  1 -0.8472 1.10594 10.5652 31.0242
    101   34  2  0.4236 0.725665 10.3989 30.0837
    102   34  2  0.4236 0.310617 10.5068 31.6303
    103   35  1 -0.8472 19.1797 25.8567 13.4228
    104   35  2  0.4236 18.2012 25.9401 13.2865
    105   35  2  0.4236 19.5368 25.2142 12.7142
    106   36  1 -0.8472 7.95655 34.7296 24.4813
    107   36  2  0.4236 8.2758 34.2079 25.294
    108   36  2  0.4236 8.69149 34.6896 23.7377
    109   37  1 -0.8472 18.9291 35.2001 23.5508
    110   37  2  0.4236 19.8741 34.9508 23.3596
    111   37  2  0.4236 18.3384 34.4357 23.1938
    112   38  1 -0.8472 5.04437 17.1239 13.0743
    113   38  2  0.4236 4.62089 18.0509 13.0592
    114   38  2  0.4236 5.50806 17.0367 13.9729
    115   39  1 -0.8472 27.8915 27.0857 35.2177
    116   39  2  0.4236 28.6792 27.4174 0.251272
    117   39  2  0.4236 28.0892 26.0836 34.9785
    118   40  1 -0.8472 13.6729 16.2965 12.7594
    119   40  2  0.4236 14.3283 16.1642 13.5203
    120   40  2  0.4236 14.1547 15.9796 11.9332
    121   41  1 -0.8472 6.27718 5.30544 5.76103
    122   41  2  0.4236 7.23929 4.92476 5.80569
    123   41  2  0.4236 6.02255 5.59455 6.67221
    124   42  1 -0.8472 12.5155 35.143 25.2426
    125   42  2  0.4236 11.5986 34.8548 25.5439
    126   42  2  0.4236 12.5726 0.666643 25.2635
    127   43  1 -0.8472 18.0487 30.6714 26.2762
    128   43  2  0.4236 18.009 30.5897 25.2705
    129   43  2  0.4236 19.0188 30.9074 26.5348
    130   44  1 -0.8472 12.7435 1.51733 20.1095
    131   44  2  0.4236 13.5257 1.29612 20.7557
    132   44  2  0.4236 12.1371 0.737961 20.0653
    133   45  1 -0.8472 23.5913 22.4478 28.2258
    134   45  2  0.4236 23.7409 21.4756 28.1014
    135   45  2  0.4236 22.6105 22.6497 28.2509
    136   46  1 -0.8472 30.5842 15.1834 35.1656
    137   46  2  0.4236 31.025 15.1957 0.673617
    138   46  2  0.4236 29.7432 14.6328 35.1844
    139   47  1 -0.8472 18.1791 20.3422 33.871
    140   47  2  0.4236 17.6874 20.7907 33.1255
    141   47  2  0.4236 19.0315 19.9528 33.4948
    142   48  1 -0.8472 25.7609 15.6837 27.2739
    143   48  2  0.4236 25.0139 16.3162 27.088
    144   48  2  0.4236 25.9856 15.7937 28.2212
    145   49  1 -0.8472 9.82097 7.66994 32.9425
    146   49  2  0.4236 10.8171 7.564 32.8036
    147   49  2  0.4236 9.36245 7.1923 32.1277
    148   50  1 -0.8472 5.00249 1.47151 26.5997
    149   50  2  0.4236 4.19691 1.33031 27.2537
    150   50  2  0.4236 5.35404 2.45427 26.7218
    151   51  1 -0.8472 23.8863 20.5939 11.5778
    152   51  2  0.4236 23.7812 19.9365 12.3449
    153   51  2  0.4236 23.0039 20.7657 11.1798
    154   52  1 -0.8472 17.593 32.9684 22.2374
    155   52  2  0.4236 16.8213 33.5312 21.9509
    156   52  2  0.4236 17.2555 32.2947 22.8907
    157   53  1 -0.8472 30.8267 7.61852 24.5239
    158   53  2  0.4236 30.0747 7.0396 24.7056
    159   53  2  0.4236 30.4931 8.23442 23.7492
    160   54  1 -0.8472 34.079 6.44583 2.51328
    161   54  2  0.4236 34.2929 7.15469 1.78416
    162   54  2  0.4236 33.1393 6.61244 2.81379
    163   55  1 -0.8472 33.1923 29.7938 19.5003
    164   55  2  0.4236 32.7552 28.947 19.8002
    165   55  2  0.4236 33.6689 29.5619 18.6601
    166   56  1 -0.8472 10.0794 34.1725 21.9108
    167   56  2  0.4236 9.957 33.1907 21.8133
    168   56  2  0.4236 10.2636 34.5243 20.956
    169   57  1 -0.8472 7.79461 7.27998 9.37631
    170   57  2  0.4236 7.96753 6.30487 9.20186
    171   57  2  0.4236 6.99751 7.51011 8.84895
    172   58  1 -0.8472 34.625 27.8488 31.7024
    173   58  2  0.4236 35.323 28.5008 31.2638
    174   58  2  0.4236 34.3164 28.3434 32.5255
    175   59  1 -0.8472 34.5164 27.0568 20.1069
    176   59  2  0.4236 34.8425 26.1026 19.9948
    177   59  2  0.4236 33.5474 27.1247 19.835
    178   60  1 -0.8472 22.4536 32.5318 19.4295
    179   60  2  0.4236 23.1133 31.9997 19.9702
    180   60  2  0.4236 22.4796 33.5151 19.7428
    181   61  1 -0.8472 33.8767 4.7417 14.9242
    182   61  2  0.4236 34.5705 4.18047 14.4322
    183   61  2  0.4236 34.4223 5.1682 15.6997
    184   62  1 -0.8472 16.656 19.6288 13.2544
    185   62  2  0.4236 16.7985 19.4151 14.2664
    186   62  2  0.4236 16.7517 20.625 13.1424
    187   63  1 -0.8472 19.3734 14.9807 20.8126
    188   63  2  0.4236 19.8446 14.6412 21.623
    189   63  2  0.4236 19.2365 14.2504 20.1329
    190   64  1 -0.8472 8.43471 18.8154 9.74075
    191   64  2  0.4236 7.43065 19.1049 9.53836
    192   64  2  0.4236 8.62028 17.9807 9.2272
    193   65  1 -0.8472 0.878364 23.0297 0.692049
    194   65  2  0.4236 0.115981 23.7454 0.554803
    195   65  2  0.4236 0.467092 22.1542 0.617847
    196   66  1 -0.8472 5.00567 21.5134 29.1664
    197   66  2  0.4236 5.3203 22.4934 29.2363
    198   66  2  0.4236 5.56906 20.9586 29.7657
    199   67  1 -0.8472 3.89782 1.15015 34.3777
    200   67  2  0.4236 4.73097 1.47833 33.958
    201   67  2  0.4236 4.05039 1.20633 35.3558
    202   68  1 -0.8472 34.136 35.4711 8.13189
    203   68  2  0.4236 33.0998 35.3689 8.0412
    204   68  2  0.4236 34.4273 34.9519 8.92766
    205   69  1 -0.8472 23.4484 8.86748 16.0038
    206   69  2  0.4236 24.3727 9.07571 16.2283
    207   69  2  0.4236 22.9914 8.76551 16.8975
    208   70  1 -0.8472 3.72844 29.2955 29.7756
    209   70  2  0.4236 4.70133 29.1119 29.9028
    210   70  2  0.4236 3.58331 29.4835 28.7979
    211   71  1 -0.8472 25.7958 31.5221 4.11416
    212   71  2  0.4236 25.1582 31.023 3.53511
    213   71  2  0.4236 26.7631 31.4735 3.79823
    214   72  1 -0.8472 35.0517 7.83289 27.0452
    215   72  2  0.4236 35.407 7.08241 27.6742
    216   72  2  0.4236 34.3469 7.43025 26.425
    217   73  1 -0.8472 21.8913 34.742 3.75987
    218   73  2  0.4236 21.0798 35.0128 4.30015
    219   73  2  0.4236 22.6841 34.998 4.29053
    220   74  1 -0.8472 31.7027 2.77971 25.4041
    221   74  2  0.4236 30.6741 2.95175 25.4532
    222   74  2  0.4236 32.0762 2.91236 26.3266
    223   75  1 -0.8472 7.49454 1.64866 25.6089
    224   75  2  0.4236 7.72707 0.70765 25.1709
    225   75  2  0.4236 6.56255 1.57636 26.0146
    226   76  1 -0.8472 30.5741 6.84115 16.1708
    227   76  2  0.4236 30.4916 6.42157 15.2575
    228   76  2  0.4236 30.9829 6.16154 16.8026
    229   77  1 -0.8472 0.434716 25.1037 32.9322
    230   77  2  0.4236 35.3539 24.8915 33.6991
    231   77  2  0.4236 0.809897 26.0471 33.1088
    232   78  1 -0.8472 1.23407 25.4872 7.96855
    233   78  2  0.4236 1.1831 25.2443 6.96618
    234   78  2  0.4236 0.447244 26.1175 8.15009
    235   79  1 -0.8472 29.906 16.8934 28.9266
    236   79  2  0.4236 29.6864 17.7443 28.3678
    237   79  2  0.4236 30.9188 16.8265 28.9337
    238   80  1 -0.8472 18.1353 13.6471 5.97304
    239   80  2  0.4236 18.642 14.466 6.23959
    240   80  2  0.4236 17.5925 13.8573 5.09056
    241   81  1 -0.8472 24.2419 17.3324 3.08025
    242   81  2  0.4236 25.25 17.5144 2.83045
    243   81  2  0.4236 24.0887 16.3902 3.23016
    244   82  1 -0.8472 27.2373 18.7558 29.1275
    245   82  2  0.4236 27.065 19.444 29.8426
    246   82  2  0.4236 28.0802 18.9959 28.6364
    247   83  1 -0.8472 33.8029 20.3835 23.4653
    248   83  2  0.4236 34.3525 20.0068 22.6848
    249   83  2  0.4236 33.2777 21.1626 23.0718
    250   84  1 -0.8472 1.31248 12.2376 20.4524
    251   84  2  0.4236 0.31309 12.2948 20.3243
    252   84  2  0.4236 1.74544 13.1616 20.2663
    253   85  1 -0.8472 24.3634 8.55414 22.3061
    254   85  2  0.4236 24.8953 7.77842 21.8649
    255   85  2  0.4236 24.7797 9.43739 22.0408
    256   86  1 -0.8472 22.949 19.4335 4.35808
    257   86  2  0.4236 23.4009 18.5807 4.02931
    258   86  2  0.4236 23.5633 20.246 4.36394
    259   87  1 -0.8472 33.4551 9.95553 10.0974
    260   87  2  0.4236 33.0864 9.1163 10.3319
    261   87  2  0.4236 34.2162 10.2054 10.7353
    262   88  1 -0.8472 15.7585 9.94544 8.17743
    263   88  2  0.4236 16.0328 10.2584 7.29907
    264   88  2  0.4236 14.7959 10.1853 8.26194
    265   89  1 -0.8472 29.9959 30.4625 24.0085
    266   89  2  0.4236 30.4832 30.0964 24.8435
    267   89  2  0.4236 29.7166 29.6893 23.4804
    268   90  1 -0.8472 4.86757 9.20194 33.4048
    269   90  2  0.4236 4.7402 9.6646 32.5445
    270   90  2  0.4236 5.5969 8.53907 33.2815
    271   91  1 -0.8472 34.4481 17.9037 15.3022
    272   91  2  0.4236 34.0122 17.1456 15.8268
    273   91  2  0.4236 34.5835 18.7056 15.9052
    274   92  1 -0.8472 1.69586 7.60352 14.3587
    275   92  2  0.4236 2.07404 7.34895 15.2353
    276   92  2  0.4236 0.670928 7.792 14.4766
    277   93  1 -0.8472 2.3667 2.27787 24.4855
    278   93  2  0.4236 2.38791 2.28239 23.4681
    279   93  2  0.4236 2.6567 1.3599 24.7615
    280   94  1 -0.8472 35.289 5.48473 17.0249
    281   94  2  0.4236 0.0423671 6.34568 17.3856
    282   94  2  0.4236 34.9937 4.88799 17.8236
    283   95  1 -0.8472 0.767968 32.1505 14.6588
    284   95  2  0.4236 35.4416 32.7018 14.6041
    285   95  2  0.4236 0.643916 31.4781 15.4311
    286   96  1 -0.8472 2.1405 3.97085 16.6695
    287   96  2  0.4236 2.79655 4.56651 17.2004
    288   96  2  0.4236 1.26665 4.50992 16.6406
    289   97  1 -0.8472 11.178 10.2908 18.541
    290   97  2  0.4236 10.8824 10.4405 17.5946
    291   97  2  0.4236 10.3605 9.89518 18.987
    292   98  1 -0.8472 0.78376 30.1813 2.58865
    293   98  2  0.4236 35.4923 30.7939 2.45849
    294   98  2  0.4236 1.60229 30.772 2.70085
    295   99  1 -0.8472 31.4702 2.22767 2.29783
    296   99  2  0.4236 32.3071 1.99559 2.7488
    297   99  2  0.4236 31.4357 1.67729 1.45248
    298  100  1 -0.8472 5.86764 0.876971 9.94049
    299  100  2  0.4236 5.5726 1.15845 10.8785
    300  100  2  0.4236 5.10775 1.1828 9.31867
    301  101  1 -0.8472 11.8691 1.93065 8.83496
    302  101  2  0.4236 11.1247 1.92003 9.52452
    303  101  2  0.4236 12.4428 2.68642 9.0547
    304  102  1 -0.8472 32.6037 6.935 31.9366
    305  102  2  0.4236 31.8186 6.9734 31.3084
    306  102  2  0.4236 33.482 6.97515 31.3774
    307  103  1 -0.8472 23.9136 6.73536 6.11078
    308  103  2  0.4236 24.7 6.13639 5.8629
    309  103  2  0.4236 23.0841 6.32935 5.67454
    310  104  1 -0.8472 11.3841 34.2625 12.7333
    311  104  2  0.4236 11.1901 33.9064 11.7842
    312  104  2  0.4236 12.298 34.0036 12.9398
    313  105  1 -0.8472 8.0192 21.402 13.625
    314  105  2  0.4236 8.01125 20.453 14.1023
    315  105  2  0.4236 8.47531 21.2352 12.7214
    316  106  1 -0.8472 8.69239 16.4244 8.18663
    317  106  2  0.4236 9.1786 15.589 8.37911
    318  106  2  0.4236 7.86871 16.1767 7.63506
    319  107  1 -0.8472 9.14349 31.4396 12.7942
    320  107  2  0.4236 8.51123 30.9802 13.4831
    321  107  2  0.4236 8.68863 32.2145 12.4504
    322  108  1 -0.8472 18.4463 27.4118 30.9679
    323  108  2  0.4236 18.4861 28.2564 30.3937
    324  108  2  0.4236 17.7757 27.5251 31.6853
    325  109  1 -0.8472 17.2105 26.5721 17.3955
    326  109  2  0.4236 18.1437 26.9263 17.66
    327  109  2  0.4236 17.3097 25.5413 17.3779
    328  110  1 -0.8472 28.868 11.9175 20.1447
    329  110  2  0.4236 28.5108 11.5271 19.3235
    330  110  2  0.4236 29.0616 12.9155 19.9
    331  111  1 -0.8472 19.1905 20.2924 20.8371
    332  111  2  0.4236 18.2552 20.2368 21.2643
    333  111  2  0.4236 19.7415 20.8047 21.4538
    334  112  1 -0.8472 24.0755 30.3607 15.7041
    335  112  2  0.4236 24.7615 30.6806 15.0137
    336  112  2  0.4236 23.2327 30.23 15.1375
    337  113  1 -0.8472 13.3539 4.47542 28.8037
    338  113  2  0.4236 13.7118 4.48926 27.8385
    339  113  2  0.4236 14.0893 4.93174 29.3656
    340  114  1 -0.8472 3.70845 1.19441 1.45269
    341  114  2  0.4236 4.27437 0.99482 2.31148
    342  114  2  0.4236 2.75471 1.03101 1.74129
    343  115  1 -0.8472 22.4131 24.0718 10.0937
    344  115  2  0.4236 22.9902 23.3019 9.88955
    345  115  2  0.4236 22.8435 24.9108 9.71233
    346  116  1 -0.8472 6.62673 2.71372 19.7469
    347  116  2  0.4236 5.83927 2.42083 20.3148
    348  116  2  0.4236 6.5304 2.25999 18.854
    349  117  1 -0.8472 12.6686 11.436 26.0207
    350  117  2  0.4236 12.1836 11.9956 26.7027
    351  117  2  0.4236 13.0978 10.6172 26.4947
    352  118  1 -0.8472 8.96934 1.10653 19.2559
    353  118  2  0.4236 9.36594 2.0611 19.0656
    354  118  2  0.4236 8.05478 1.23507 19.6384
    355  119  1 -0.8472 3.09079 18.7934 0.20958
    356  119  2  0.4236 3.31353 18.7061 1.19148
    357  119  2  0.4236 2.12015 18.4441 0.0837868
    358  120  1 -0.8472 33.2871 17.7199 21.5056
    359  120  2  0.4236 32.9127 18.5746 21.1261
    360  120  2  0.4236 33.1816 17.7642 22.5313
    361  121  1 -0.8472 19.9417 32.3343 18.1841
    362  121  2  0.4236 19.3024 32.1454 18.9259
    363  121  2  0.4236 20.8512 32.5017 18.5936
    364  122  1 -0.8472 32.6004 13.852 18.4014
    365  122  2  0.4236 32.5062 14.5573 19.15
    366  122  2  0.4236 31.9774 14.044 17.6289
    367  123  1 -0.8472 0.392913 18.1299 1.01749
    368  123  2  0.4236 0.650121 18.6126 1.84112
    369  123  2  0.4236 34.8839 17.9071 1.13418
    370  124  1 -0.8472 4.05455 25.9194 7.45494
    371  124  2  0.4236 3.10644 25.6125 7.63465
    372  124  2  0.4236 4.17528 26.017 6.48163
    373  125  1 -0.8472 15.9442 21.9459 15.9131
    374  125  2  0.4236 16.4383 22.3351 15.0803
    375  125  2  0.4236 15.205 21.4223 15.5395
    376  126  1 -0.8472 21.2698 22.7954 7.4823
    377  126  2  0.4236 20.7934 22.7357 8.38021
    378  126  2  0.4236 22.2524 22.6734 7.70861
    379  127  1 -0.8472 6.80903 4.16069 1.64227
    380  127  2  0.4236 6.4358 4.88607 0.986179
    381  127  2  0.4236 7.68944 4.52029 1.96617
    382  128  1 -0.8472 26.1736 32.7649 9.91174
    383  128  2  0.4236 25.9382 31.8138 10.2086
    384  128  2  0.4236 26.584 33.2964 10.688
    385  129  1 -0.8472 7.48048 33.4143 11.7138
    386  129  2  0.4236 7.6403 34.2028 12.3084
    387  129  2  0.4236 6.69546 32.9284 12.0882
    388  130  1 -0.8472 3.23326 6.51898 9.45613
    389  130  2  0.4236 2.79778 7.36987 9.63219
    390  130  2  0.4236 3.07498 5.8892 10.2726
    391  131  1 -0.8472 3.7727 9.86496 30.9125
    392  131  2  0.4236 3.89398 9.86745 29.8656
    393  131  2  0.4236 2.84203 10.1544 31.0841
    394  132  1 -0.8472 1.2706 9.76237 7.85821
    395  132  2  0.4236 1.85337 9.31899 7.14164
    396  132  2  0.4236 0.292819 9.65004 7.63046
    397  133  1 -0.8472 2.21398 11.5506 15.3694
    398  133  2  0.4236 3.08535 12.0649 15.5584
    399  133  2  0.4236 2.4982 10.6999 14.8934
    400  134  1 -0.8472 17.4366 23.7313 17.6326
    401  134  2  0.4236 16.8043 23.2196 17.0626
    402  134  2  0.4236 18.2652 23.9124 17.0587
    403  135  1 -0.8472 8.91726 4.65943 5.79362
    404  135  2  0.4236 9.70127 5.28473 5.75581
    405  135  2  0.4236 9.06296 3.95047 6.50627
    406  136  1 -0.8472 7.9856 0.154725 13.1696
    407  136  2  0.4236 8.85529 0.392611 13.6921
    408  136  2  0.4236 7.27677 0.263129 13.8043
    409  137  1 -0.8472 34.9788 24.6188 19.6736
    410  137  2  0.4236 35.4411 23.7848 20.0298
    411  137  2  0.4236 34.5019 24.4051 18.7392
    412  138  1 -0.8472 11.5317 23.906 12.1263
    413  138  2  0.4236 12.4223 24.3268 11.861
    414  138  2  0.4236 11.1018 24.5682 12.8105
    415  139  1 -0.8472 2.38481 3.93248 19.9765
    416  139  2  0.4236 2.45522 3.88129 18.9547
    417  139  2  0.4236 2.90607 4.71796 20.2442
    418  140  1 -0.8472 20.7087 31.3006 26.4734
    419  140  2  0.4236 21.1625 31.7246 25.6959
    420  140  2  0.4236 20.7001 31.96 27.1999
    421  141  1 -0.8472 27.2861 19.8986 7.77736
    422  141  2  0.4236 27.0224 19.4282 6.90977
    423  141  2  0.4236 26.4691 19.9719 8.31438
    424  142  1 -0.8472 31.6722 11.9911 35.4573
    425  142  2  0.4236 31.328 12.0145 0.98018
    426  142  2  0.4236 30.9009 11.7646 34.8829
    427  143  1 -0.8472 22.0983 6.94817 1.46952
    428  143  2  0.4236 23.0045 7.14722 1.90155
    429  143  2  0.4236 21.6722 6.20707 2.07337
    430  144  1 -0.8472 19.8877 20.3061 16.2382
    431  144  2  0.4236 19.1347 19.6344 16.026
    432  144  2  0.4236 19.6252 20.7251 17.0892
    433  145  1 -0.8472 3.79337 35.3694 24.4089
    434  145  2  0.4236 4.14636 0.447412 25.1469
    435  145  2  0.4236 4.54851 35.1002 23.8118
    436  146  1 -0.8472 22.4249 20.3279 19.4828
    437  146  2  0.4236 22.8011 20.2737 18.5379
    438  146  2  0.4236 21.7774 21.0923 19.4413
    439  147  1 -0.8472 13.0458 3.39573 5.25631
    440  147  2  0.4236 13.2902 2.54084 4.81724
    441  147  2  0.4236 12.6885 4.05202 4.51815
    442  148  1 -0.8472 15.2286 28.2199 13.2474
    443  148  2  0.4236 15.6365 29.0719 13.491
    444  148  2  0.4236 14.8289 28.3077 12.3594
    445  149  1 -0.8472 30.3307 4.9052 29.7155
    446  149  2  0.4236 30.3627 5.88021 30.0136
    447  149  2  0.4236 31.2164 4.65398 29.2317
    448  150  1 -0.8472 19.6071 22.5133 9.61224
    449  150  2  0.4236 19.7041 22.8668 10.6027
    450  150  2  0.4236 19.1806 21.6008 9.69307
    451  151  1 -0.8472 20.9632 3.78515 26.3485
    452  151  2  0.4236 21.6173 3.81477 25.534
    453  151  2  0.4236 20.0302 3.7444 25.9577
    454  152  1 -0.8472 23.3647 29.2228 35.413
    455  152  2  0.4236 22.368 29.0601 35.2665
    456  152  2  0.4236 23.8511 28.3354 0.04651
    457  153  1 -0.8472 19.2571 32.1812 13.6004
    458  153  2  0.4236 18.3888 32.6435 13.7787
    459  153  2  0.4236 19.8676 32.7854 13.059
    460  154  1 -0.8472 35.0564 20.6267 0.242799
    461  154  2  0.4236 34.7426 20.5464 34.7651
    462  154  2  0.4236 35.2526 19.6744 0.540486
    463  155  1 -0.8472 14.3731 1.52521 3.82147
    464  155  2  0.4236 14.1719 0.651238 3.29068
    465  155  2  0.4236 15.3285 1.4959 4.1101
    466  156  1 -0.8472 23.3402 9.13958 7.66207
    467  156  2  0.4236 23.639 8.26919 7.28683
    468  156  2  0.4236 23.6358 9.86622 7.00448
    469  157  1 -0.8472 13.5869 14.5982 29.8705
    470  157  2  0.4236 13.7468 13.732 30.3311
    471  157  2  0.4236 12.7076 14.9088 30.1177
    472  158  1 -0.8472 31.9846 9.22351 2.99215
    473  158  2  0.4236 31.0852 9.47485 3.45465
    474  158  2  0.4236 32.7171 9.59453 3.58042
    475  159  1 -0.8472 33.2237 31.0887 27.7645
    476  159  2  0.4236 33.2321 31.7117 28.5883
    477  159  2  0.4236 34.1254 30.648 27.7178
    478  160  1 -0.8472 31.594 5.82324 35.2935
    479  160  2  0.4236 31.94 5.46235 34.4609
    480  160  2  0.4236 32.0412 6.71191 35.4521
    481  161  1 -0.8472 14.6983 19.4207 19.2329
    482  161  2  0.4236 15.6496 19.268 18.8935
    483  161  2  0.4236 14.2246 18.5045 19.1454
    484  162  1 -0.8472 34.444 15.1006 34.506
    485  162  2  0.4236 33.7307 14.4844 34.8879
    486  162  2  0.4236 34.0047 15.8373 34.0183
    487  163  1 -0.8472 28.0412 6.63729 11.4709
    488  163  2  0.4236 28.6663 6.85038 10.682
    489  163  2  0.4236 27.8281 7.4569 11.9826
    490  164  1 -0.8472 10.6266 26.3766 34.1541
    491  164  2  0.4236 10.0225 25.6959 33.6512
    492  164  2  0.4236 11.2128 25.8455 34.7756
    493  165  1 -0.8472 8.17381 20.2867 26.4757
    494  165  2  0.4236 7.48448 20.9585 26.2082
    495  165  2  0.4236 7.72248 19.3844 26.5674
    496  166  1 -0.8472 23.7745 8.6483 32.279
    497  166  2  0.4236 24.2486 7.99868 31.6162
    498  166  2  0.4236 23.8412 8.21706 33.1651
    499  167  1 -0.8472 16.5517 12.1966 13.1214
    500  167  2  0.4236 15.8553 12.575 13.7304
    501  167  2  0.4236 16.1236 12.0529 12.1554
    502  168  1 -0.8472 11.7441 27.5002 8.47225
    503  168  2  0.4236 12.0508 26.7948 7.86057
    504  168  2  0.4236 11.6049 28.2919 7.93263
    505  169  1 -0.8472 16.3748 13.8411 3.88376
    506  169  2  0.4236 16.084 14.8045 3.71138
    507  169  2  0.4236 15.8677 13.2656 3.2234
    508  170  1 -0.8472 30.1212 25.5327 19.2976
    509  170  2  0.4236 30.248 25.3769 18.3195
    510  170  2  0.4236 29.1059 25.5794 19.503
    511  171  1 -0.8472 29.1374 9.67855 1.13359
    512  171  2  0.4236 29.4845 10.6274 1.33877
    513  171  2  0.4236 28.6054 9.39976 1.98818
    514  172  1 -0.8472 32.2873 2.5156 20.8265
    515  172  2  0.4236 32.3262 1.85997 20.0508
    516  172  2  0.4236 32.1827 1.94887 21.6612
    517  173  1 -0.8472 15.4667 6.10887 29.6942
    518  173  2  0.4236 15.7785 7.01855 29.9461
    519  173  2  0.4236 16.0429 5.79989 28.9388
    520  174  1 -0.8472 29.2241 22.0037 24.5682
    521  174  2  0.4236 29.7162 22.789 24.1534
    522  174  2  0.4236 29.9214 21.2856 24.6504
    523  175  1 -0.8472 30.5637 18.8195 10.3096
    524  175  2  0.4236 30.5884 17.8967 9.89076
    525  175  2  0.4236 30.3788 18.7411 11.2992
    526  176  1 -0.8472 28.6649 33.8045 33.6765
    527  176  2  0.4236 28.5745 34.767 33.4043
    528  176  2  0.4236 28.6271 33.8009 34.7027
    529  177  1 -0.8472 34.2831 20.8126 33.1142
    530  177  2  0.4236 34.2665 20.0191 32.534
    531  177  2  0.4236 33.6581 21.5138 32.6955
    532  178  1 -0.8472 17.4818 28.1665 3.46472
    533  178  2  0.4236 18.4118 27.853 3.69545
    534  178  2  0.4236 17.6618 29.1487 3.15131
    535  179  1 -0.8472 26.0501 34.8689 27.8837
    536  179  2  0.4236 25.1365 34.5292 27.6558
    537  179  2  0.4236 26.5662 34.9379 27.0156
    538  180  1 -0.8472 21.4398 27.4201 13.5651
    539  180  2  0.4236 20.6139 26.8399 13.6469
    540  180  2  0.4236 22.178 26.7635 13.2363
    541  181  1 -0.8472 35.0196 14.2893 2.00029
    542  181  2  0.4236 0.372967 14.6191 1.59985
    543  181  2  0.4236 34.6033 13.6655 1.26467
    544  182  1 -0.8472 24.6914 1.14789 24.5743
    545  182  2  0.4236 23.8932 0.774018 25.1037
    546  182  2  0.4236 24.3197 1.44094 23.6615
    547  183  1 -0.8472 8.24397 35.1279 3.57125
    548  183  2  0.4236 8.84964 34.7037 2.88105
    549  183  2  0.4236 7.42439 34.5077 3.59868
    550  184  1 -0.8472 33.8945 22.5099 29.0658
    551  184  2  0.4236 33.74 23.2238 29.7868
    552  184  2  0.4236 34.7364 22.0309 29.2731
    553  185  1 -0.8472 13.9963 3.65769 9.02567
    554  185  2  0.4236 13.4753 4.21439 8.31215
    555  185  2  0.4236 14.8282 4.17121 9.2493
    556  186  1 -0.8472 34.3565 23.8058 10.0632
    557  186  2  0.4236 34.8814 23.0096 10.2778
    558  186  2  0.4236 34.2282 23.8178 9.05921
    559  187  1 -0.8472 14.3909 18.9591 12.2837
    560  187  2  0.4236 15.2895 19.0076 12.7316
    561  187  2  0.4236 14.0165 18.0292 12.4249
    562  188  1 -0.8472 31.2349 32.7745 32.9299
    563  188  2  0.4236 30.3519 33.0368 33.39
    564  188  2  0.4236 31.0694 31.8848 32.4885
    565  189  1 -0.8472 2.41524 7.35295 25.9154
    566  189  2  0.4236 1.58221 7.39211 26.4412
    567  189  2  0.4236 2.63238 6.38945 25.6907
    568  190  1 -0.8472 20.2846 8.20289 35.2641
    569  190  2  0.4236 20.9128 7.66091 0.411065
    570  190  2  0.4236 20.4042 9.15804 0.0434447
    571  191  1 -0.8472 29.6869 18.7863 27.1502
    572  191  2  0.4236 28.8737 18.8477 26.5732
    573  191  2  0.4236 30.3869 18.223 26.6632
    574  192  1 -0.8472 13.7163 23.1707 17.1276
    575  192  2  0.4236 14.5034 22.7674 16.665
    576  192  2  0.4236 13.8003 24.1468 17.0269
    577  193  1 -0.8472 25.2624 22.1872 17.1287
    578  193  2  0.4236 24.2979 22.31 17.3931
    579  193  2  0.4236 25.6395 21.5139 17.7652
    580  194  1 -0.8472 15.2241 29.1533 4.17603
    581  194  2  0.4236 16.0456 28.709 3.88276
    582  194  2  0.4236 15.2141 29.084 5.20581
    583  195  1 -0.8472 10.1842 2.93154 10.9422
    584  195  2  0.4236 10.6988 3.10801 11.7777
    585  195  2  0.4236 9.53833 2.14335 11.0617
    586  196  1 -0.8472 35.0804 34.1472 12.3337
    587  196  2  0.4236 0.379417 34.3081 11.7414
    588  196  2  0.4236 34.2933 33.9394 11.7122
    589  197  1 -0.8472 25.9879 26.9554 21.0591
    590  197  2  0.4236 25.9655 27.2354 22.0067
    591  197  2  0.4236 25.8949 27.8068 20.4977
    592  198  1 -0.8472 27.8468 27.3582 14.3541
    593  198  2  0.4236 27.5954 26.4418 13.9544
    594  198  2  0.4236 28.7774 27.5736 14.0088
    595  199  1 -0.8472 29.1352 9.32504 22.5743
    596  199  2  0.4236 29.5557 10.0633 22.034
    597  199  2  0.4236 29.3602 8.45153 22.1465
    598  200  1 -0.8472 6.53219 14.9042 2.68115
    599  200  2  0.4236 6.47965 13.9343 2.85612
    600  200  2  0.4236 5.76141 15.0793 2.04882
    601  201  1 -0.8472 30.5691 8.1679 27.7327
    602  201  2  0.4236 31.1914 8.57679 27.0908
    603  201  2  0.4236 30.1728 7.29098 27.3284
    604  202  1 -0.8472 24.1196 28.0175 26.0471
    605  202  2  0.4236 25.1198 27.8529 25.9992
    606  202  2  0.4236 23.8888 28.4183 26.9563
    607  203  1 -0.8472 35.0218 10.3551 12.3546
    608  203  2  0.4236 34.7872 9.49673 12.8501
    609  203  2  0.4236 34.5586 11.1217 12.841
    610  204  1 -0.8472 9.63602 25.901 5.95978
    611  204  2  0.4236 8.75663 26.3822 5.70775
    612  204  2  0.4236 9.73787 25.098 5.32227
    613  205  1 -0.8472 5.38145 34.6641 19.0312
    614  205  2  0.4236 5.1274 35.2687 19.7742
    615  205  2  0.4236 5.63044 35.21 18.2236
    616  206  1 -0.8472 9.3692 15.1933 34.9552
    617  206  2  0.4236 8.94964 16.1006 34.6673
    618  206  2  0.4236 8.77056 14.4638 34.5878
    619  207  1 -0.8472 5.5137 8.01509 23.5996
    620  207  2  0.4236 5.32106 9.01195 23.3865