LAMMPS data file via write_data, version 10 Aug 2015, timestep = 1000045

4519 atoms
9 atom types
3019 bonds
9 bond types
1535 angles
17 angle types
66 dihedrals
19 dihedral types

5.6535089269290495e-01 3.4993899107300734e+01 xlo xhi
5.6535089269290495e-01 3.4993899107300734e+01 ylo yhi
5.6441298634935677e-01 3.4935597013646841e+01 zlo zhi

Masses

1 15.9994
2 1.00794
3 1.008
4 12.01
5 12.01
6 16
7 14.01
8 1.008
9 1.008

Pair Coeffs # lj/cut/coul/cut

1 0.15535 3.166
2 0 0
3 0.0157 2.64953
4 0.1094 3.39967
5 0.086 3.39967
6 0.21 2.95992
7 0.17 3.25
8 0.0157 1.06908
9 0.0157 2.47135

Bond Coeffs # harmonic

1 1000 1
2 570 1.229
3 490 1.335
4 340 1.09
5 317 1.522
6 340 1.09
7 310 1.526
8 434 1.01
9 337 1.449

Angle Coeffs # harmonic

1 100 109.47
2 80 122.9
3 50 120
4 50 121.9
5 50 109.5
6 35 109.5
7 80 120.4
8 70 116.6
9 63 111.1
10 50 109.5
11 50 109.5
12 50 109.5
13 50 118.04
14 50 109.5
15 80 109.7
16 63 110.1
17 35 109.5

Dihedral Coeffs # harmonic

1 2 1 1
2 2.5 -1 2
3 0 1 2
4 2 1 2
5 0.4 1 3
6 0 1 4
7 0 1 1
8 0.272 1 2
9 0.43 1 3
10 0.8 1 1
11 0.08 -1 3
12 0.155556 1 3
13 0.2 1 1
14 0.2 1 2
15 0.45 -1 1
16 1.58 -1 2
17 0.55 -1 3
18 10.5 -1 2
19 1.1 -1 2

Atoms # full

2050 684 1 -8.4719999999999995e-01 2.6205934802632798e+00 3.1417632817055043e+00 2.5831834727906018e+00 0 0 0
2932 978 1 -8.4719999999999995e-01 5.7073750791297915e+00 3.0101384090355121e+00 3.8538947923492954e+00 0 1 0
2933 978 2 4.2359999999999998e-01 4.8524944664263856e+00 2.4887484226824901e+00 3.8104416622365660e+00 0 1 0
2934 978 2 4.2359999999999998e-01 5.5275908268732037e+00 4.0224556280181760e+00 3.7181637873993165e+00 0 1 0
3046 1016 1 -8.4719999999999995e-01 6.3794467648456887e+00 7.0541010608135952e+00 5.2139696454042506e+00 1 1 0
3047 1016 2 4.2359999999999998e-01 6.6164343766489537e+00 7.0413637164441720e+00 6.2031333154923169e+00 1 1 0
3328 1110 1 -8.4719999999999995e-01 2.4471808478259645e+00 6.5268004400745685e+00 7.5209561306960753e+00 0 1 0
4108 1370 1 -8.4719999999999995e-01 5.1358827721731650e+00 5.7506179951479606e+00 3.2865317555189026e+00 1 1 0
4109 1370 2 4.2359999999999998e-01 4.1614708496892145e+00 5.8709293153300743e+00 3.6129315387116212e+00 1 1 0
4110 1370 2 4.2359999999999998e-01 5.7455765846657929e+00 6.1584664150314889e+00 4.0073969823120770e+00 1 1 0
4264 1422 1 -8.4719999999999995e-01 2.6969344262019566e+00 5.6854902500560076e+00 4.3083688642075355e+00 0 1 0
2401 801 1 -8.4719999999999995e-01 3.0142127300758310e+00 4.1125335540285235e+00 6.5426393206568143e+00 1 -1 0
3048 1016 2 4.2359999999999998e-01 7.2077395103265998e+00 7.3423223112904248e+00 4.7015813577382710e+00 1 1 0
3329 1110 2 4.2359999999999998e-01 1.6532534450717111e+00 6.3324510183961484e+00 8.0490199764709747e+00 0 1 0
2403 801 2 4.2359999999999998e-01 2.3971317561062433e+00 3.6805345563245209e+00 7.1678115656000969e+00 1 -1 0
2224 742 1 -8.4719999999999995e-01 6.0623545716281040e+00 2.3685880213931192e+00 6.4005679138465670e+00 0 1 0
2225 742 2 4.2359999999999998e-01 6.0373347950093947e+00 2.7486761715477463e+00 5.4375061418758266e+00 0 1 0
2226 742 2 4.2359999999999998e-01 5.6213320114797245e+00 3.0445579964616303e+00 7.0031149938290591e+00 0 1 0
2500 834 1 -8.4719999999999995e-01 7.3281752609380826e+00 6.1682413169014296e+00 1.7386455892636514e+00 0 0 0
3330 1110 2 4.2359999999999998e-01 2.7351330017306488e+00 5.7020367959505460e+00 6.9682984786946802e+00 0 1 0
4266 1422 2 4.2359999999999998e-01 1.8686431585244676e+00 6.2497896558938786e+00 4.4692620485116183e+00 0 1 0
2502 834 2 4.2359999999999998e-01 8.0567808738947324e+00 5.6569648240802808e+00 2.2085792054717390e+00 0 0 0
121 41 1 -8.4719999999999995e-01 7.7579055197204996e+00 5.4568115283702028e+00 7.6912126636603695e+00 1 1 0
169 57 1 -8.4719999999999995e-01 6.3088145026256033e+00 7.5956531866064809e+00 8.4912089540521993e+00 0 0 0
2501 834 2 4.2359999999999998e-01 6.5424624711637636e+00 5.9513536558625590e+00 2.3000489770361252e+00 0 0 0
2402 801 2 4.2359999999999998e-01 3.8533863885618183e+00 4.1509191192583703e+00 7.0420607846212020e+00 1 -1 0
2051 684 2 4.2359999999999998e-01 1.8875259167382856e+00 3.2931899834267622e+00 1.9274992822550281e+00 0 0 0
2052 684 2 4.2359999999999998e-01 2.9242647953869474e+00 4.0379729876360173e+00 2.9084680428085297e+00 0 0 0
2190 730 2 4.2359999999999998e-01 2.8822108400605617e+00 8.1873685463849526e+00 7.6175433086731026e+00 1 0 0
3150 1050 2 4.2359999999999998e-01 2.9909158994177627e+00 1.5864588848747856e+00 3.1304468442236355e+00 0 1 0
4265 1422 2 4.2359999999999998e-01 2.8340078710557806e+00 5.0703016260745164e+00 5.1300673178730500e+00 0 1 0
1793 598 2 4.2359999999999998e-01 8.9608040172579013e+00 2.2646118725097111e+00 2.9694331388503250e+00 0 0 0
1792 598 1 -8.4719999999999995e-01 8.6628018912494351e+00 2.9030353441712711e+00 3.6565288615346243e+00 0 0 0
298 100 1 -8.4719999999999995e-01 5.3538371367428468e+00 4.6768461422719554e+00 7.9842170498681968e+00 1 0 0
123 41 2 4.2359999999999998e-01 8.6152268844553870e+00 5.6354950559027097e+00 7.1562742523799709e+00 1 1 0
1794 598 2 4.2359999999999998e-01 7.7227160415942357e+00 2.7254408189845467e+00 3.9371578226629662e+00 0 0 0
122 41 2 4.2359999999999998e-01 7.4531766223419753e+00 6.3024578260946065e+00 8.2198374462794579e+00 1 1 0
300 100 2 4.2359999999999998e-01 6.3532299996372172e+00 4.7787062054631457e+00 7.8756156644508790e+00 1 0 0
299 100 2 4.2359999999999998e-01 5.0844758609780039e+00 5.5014908134411140e+00 8.4463480388188472e+00 1 0 0
4053 1351 2 4.2359999999999998e-01 9.2431291091394474e+00 4.6351143275037394e+00 3.9347111520238580e+00 0 1 0
171 57 2 4.2359999999999998e-01 6.0910845693255746e+00 8.3870017354669137e+00 7.8866433316475089e+00 0 0 0
3391 1131 1 -8.4719999999999995e-01 6.4009718756753042e-01 7.0875928097085099e+00 5.0362145320810425e+00 0 0 0
3164 1055 2 4.2359999999999998e-01 5.3503396419866087e+00 8.2514032058102416e+00 4.0991387281290397e+00 1 1 0
4503 1500 6 -5.6790000164633436e-01 5.3171807343699511e+00 1.6703309733532923e+00 6.4530031007575606e-01 0 0 0
3148 1050 1 -8.4719999999999995e-01 3.4537343289475317e+00 8.8605475650777032e-01 3.7315897641879463e+00 0 1 0
1962 654 2 4.2359999999999998e-01 3.9830286940114017e+00 1.1180900413706849e+00 8.8237555596807375e+00 0 0 0
3099 1033 2 4.2359999999999998e-01 1.7726575312007864e+01 1.7786649344263534e+00 3.6826501592436651e+00 -1 1 0
2452 818 1 -8.4719999999999995e-01 8.6326701593246806e+00 8.8521056292147993e+00 4.7999429776681390e+00 0 0 0
4051 1351 1 -8.4719999999999995e-01 9.2935576786631220e+00 5.5972347458532816e+00 3.6850386655208101e+00 0 1 0
341 114 2 4.2359999999999998e-01 5.2258891264765763e+00 6.5741540567033763e-01 6.1051218476783768e+00 0 1 0
170 57 2 4.2359999999999998e-01 5.4571779128652986e+00 7.4122847659407300e+00 8.9927370088099146e+00 0 0 0
3138 1046 2 4.2359999999999998e-01 7.4245149100438539e+00 3.2842706638657808e+00 8.9434866468073242e+00 -1 0 0
2454 818 2 4.2359999999999998e-01 8.8266400100461446e+00 9.1137332105358748e+00 5.7397761975533408e+00 0 0 0
463 155 1 -8.4719999999999995e-01 1.5512998585730383e+01 5.7814163198735002e-01 1.6887232620893464e+00 0 0 0
4214 1405 2 4.2359999999999998e-01 1.1907381259226803e+01 5.9494171381993777e-01 1.7423146526849465e+01 1 1 0
4518 1500 9 9.7600000000000006e-02 3.8787178965811844e+00 8.4432704491145714e+00 1.2817765626931439e+00 0 0 0
1606 536 1 -8.4719999999999995e-01 7.9232425896696750e+00 2.4239696589778159e+00 6.5198499701849322e-01 0 0 1
4501 1500 3 1.1230000000000000e-01 2.4272365823084310e+00 9.2520111288389739e-01 9.3527736980445031e-01 0 0 0
2965 989 1 -8.4719999999999995e-01 7.8837371812354773e-01 3.6672933617141892e+00 8.0325700264371456e+00 1 0 0
2222 741 2 4.2359999999999998e-01 7.5908474011302989e+00 1.0540153084546113e+00 5.9768947942283903e+00 0 0 1
2069 690 2 4.2359999999999998e-01 1.7632826749095922e+00 9.0039324841400390e+00 4.5330677143371734e+00 1 1 0
4507 1500 9 8.2299999999999998e-02 5.5520780083827708e+00 4.2728314582836298e+00 7.7939341305654930e-01 0 0 0
263 88 2 4.2359999999999998e-01 1.5458307457036524e+01 9.1359058226179712e+00 5.4750591019818335e+00 0 0 0
1623 541 2 4.2359999999999998e-01 1.7625426809690982e+01 1.5945127791780986e+00 6.5838970937439001e+00 0 0 0
1608 536 2 4.2359999999999998e-01 6.9973621825641388e+00 2.3481178639379658e+00 9.2378986484692271e-01 0 0 1
2807 936 2 4.2359999999999998e-01 8.0436250360642418e+00 7.2752961231217723e+00 8.1017254017130591e-01 1 1 1
13 5 1 -8.4719999999999995e-01 9.5019382328920532e+00 9.0828598280353958e+00 1.3523619065524374e+01 0 1 0
4517 1500 9 9.7600000000000006e-02 2.6077396649288351e+00 7.1111698499881699e+00 1.4634926597190252e+00 0 0 0
4516 1500 4 -1.4899999999999999e-01 3.3235644380502087e+00 7.6207685455100860e+00 8.3178293864431463e-01 0 0 0
2256 752 2 4.2359999999999998e-01 9.4054954578036227e+00 1.0783510510887910e+00 7.6403956808399558e+00 0 1 0
2254 752 1 -8.4719999999999995e-01 9.3875951798905710e+00 9.6651456182992512e-01 8.6448529607694127e+00 0 1 0
4336 1446 1 -8.4719999999999995e-01 1.4337410998138012e+01 8.0546381783512047e+00 1.7500944765594717e+01 2 0 0
993 331 2 4.2359999999999998e-01 1.3586002549103291e+01 5.4142272744861852e+00 6.0897147729197409e-01 0 0 1
428 143 2 4.2359999999999998e-01 1.7490975996405517e+01 4.2016096778554584e+00 2.6877714983385061e+00 0 0 0
4052 1351 2 4.2359999999999998e-01 9.5873932766588048e+00 5.9473746268969139e+00 4.5662353899711698e+00 0 1 0
991 331 1 -8.4719999999999995e-01 1.2612731957271713e+01 5.6964715476795478e+00 6.9268651590544816e-01 0 0 1
69 23 2 4.2359999999999998e-01 1.7652025259423354e+01 6.0112106843537214e+00 5.0890919195810271e+00 1 0 0
1970 657 2 4.2359999999999998e-01 1.1821927543324753e+01 8.7749779648689668e+00 5.7736848390087427e+00 0 1 0
1173 391 2 4.2359999999999998e-01 1.7767225436337373e+01 2.4839376783766003e+00 1.0157573778806638e+01 0 0 0
464 155 2 4.2359999999999998e-01 1.6025826455960178e+01 6.7770152614557799e-01 8.3886517174818953e-01 0 0 0
4288 1430 1 -8.4719999999999995e-01 1.1494617167564716e+01 8.6874787048613888e-01 2.9819701385334283e+00 0 1 1
1971 657 2 4.2359999999999998e-01 1.2089418744865032e+01 7.3053239908636511e+00 5.1248874703043406e+00 0 1 0
4424 1475 2 4.2359999999999998e-01 1.5345729384473183e+01 6.2646216215518420e+00 9.2562174402184105e-01 1 1 0
4217 1406 2 4.2359999999999998e-01 1.5167504916437975e+01 7.2501675583903538e+00 7.5450224083283910e+00 1 1 0
4216 1406 1 -8.4719999999999995e-01 1.4612907003017476e+01 6.6455321636402473e+00 6.9536984436551936e+00 1 1 0
4423 1475 1 -8.4719999999999995e-01 1.5259541230205636e+01 5.2916439693906190e+00 1.1383765394582039e+00 1 1 0
90 30 2 4.2359999999999998e-01 1.0161372020022629e+01 6.5394230982778554e+00 2.6585056498888453e+00 1 1 0
4307 1436 2 4.2359999999999998e-01 1.5904646272324278e+01 3.0881398656075825e+00 6.3527098264842845e+00 -1 -1 0
4308 1436 2 4.2359999999999998e-01 1.5790208035278276e+01 2.1251086575410767e+00 5.1106727434897650e+00 -1 -1 0
1529 510 2 4.2359999999999998e-01 1.0448436891843752e+01 6.4850904750668912e+00 6.9663579916030685e+00 1 1 0
1528 510 1 -8.4719999999999995e-01 1.0169778707808765e+01 5.7832302620434088e+00 6.3244965615848336e+00 1 1 0
2768 923 2 4.2359999999999998e-01 1.3986499949037141e+01 2.5762618281641725e+00 3.8312807945156879e+00 1 1 1
404 135 2 4.2359999999999998e-01 1.2610132331196979e+01 8.2251315743457312e+00 7.6523529073475389e+00 1 1 0
1275 425 2 4.2359999999999998e-01 1.4828736407529192e+01 5.9915610904546019e+00 2.7119422967411966e+00 0 -1 0
1530 510 2 4.2359999999999998e-01 1.0974650029899491e+01 5.2480215894999827e+00 6.0750916576335356e+00 1 1 0
2769 923 2 4.2359999999999998e-01 1.3937333851514660e+01 3.7050986321639194e+00 2.6459159536514827e+00 1 1 1
4306 1436 1 -8.4719999999999995e-01 1.6428547591276917e+01 2.3860593445209295e+00 5.8224848112866630e+00 -1 -1 0
37 13 1 -8.4719999999999995e-01 1.2737864840046312e+01 5.0114397477611075e+00 5.4724452626468389e+00 0 0 0
38 13 2 4.2359999999999998e-01 1.3370855238823278e+01 5.3548996754913576e+00 6.1988603078225788e+00 0 0 0
39 13 2 4.2359999999999998e-01 1.3089687816984830e+01 5.4316659745828648e+00 4.6338028099580608e+00 0 0 0
88 30 1 -8.4719999999999995e-01 1.0888182377821973e+01 7.1202279998043245e+00 2.2322264272230119e+00 1 1 0
439 147 1 -8.4719999999999995e-01 1.4590367499685035e+01 3.7910299982296460e+00 7.6465286877381624e+00 1 0 0
441 147 2 4.2359999999999998e-01 1.3973594756187179e+01 3.7418704799921070e+00 8.4574704134598075e+00 1 0 0
847 283 1 -8.4719999999999995e-01 1.3536796043620084e+01 1.5948589663084942e+00 5.5063907466581963e+00 0 1 0
440 147 2 4.2359999999999998e-01 1.4901739406539402e+01 4.7718962955333977e+00 7.5297718400334999e+00 1 0 0
2767 923 1 -8.4719999999999995e-01 1.4486263039239311e+01 2.9604890645027195e+00 3.0593279224182766e+00 1 1 1
1274 425 2 4.2359999999999998e-01 1.3836002935626158e+01 7.1933838188569563e+00 3.3877652500931972e+00 0 -1 0
1273 425 1 -8.4719999999999995e-01 1.4256560169272909e+01 6.2722741788097149e+00 3.4950592153506093e+00 0 -1 0
403 135 1 -8.4719999999999995e-01 1.2871078827636261e+01 8.5042089549980311e+00 8.5745263163352021e+00 1 1 0
4006 1336 1 -8.4719999999999995e-01 1.0516161495501160e+01 7.0133651090264548e+00 9.0023490495685188e+00 0 1 0
3160 1054 1 -8.4719999999999995e-01 1.4766696942884860e+01 7.9638518134549088e+00 8.4307474473240118e-01 0 0 0
4218 1406 2 4.2359999999999998e-01 1.3927426282580525e+01 7.2785972287237453e+00 6.5482531676910227e+00 1 1 0
89 30 2 4.2359999999999998e-01 1.1337784816469625e+01 6.5713345769580647e+00 1.5644225289349785e+00 1 1 0
849 283 2 4.2359999999999998e-01 1.3744548966264915e+01 2.3580081398244199e+00 6.1664789692383133e+00 0 1 0
720 240 2 4.2359999999999998e-01 1.7218814644210106e+01 7.6672122106937906e+00 3.1514547239597421e+00 0 0 0
3670 1224 1 -8.4719999999999995e-01 1.1117295369095054e+01 3.4659367233588072e+00 2.2313625627011735e+00 0 1 0
3672 1224 2 4.2359999999999998e-01 1.0327868257734369e+01 3.6518650101827879e+00 1.5831599176075044e+00 0 1 0
3671 1224 2 4.2359999999999998e-01 1.1651746145321704e+01 4.2953473336481114e+00 2.2048434356804791e+00 0 1 0
1969 657 1 -8.4719999999999995e-01 1.2313716094063732e+01 7.8737166923533888e+00 5.8968492118219951e+00 0 1 0
67 23 1 -8.4719999999999995e-01 1.7084220037663748e+01 6.5212815978021377e+00 4.4316648783327750e+00 1 0 0
68 23 2 4.2359999999999998e-01 1.6148770072136035e+01 6.2597001408604340e+00 4.7366025825333224e+00 1 0 0
2582 861 2 4.2359999999999998e-01 1.5699306868091172e+01 3.0092334838437260e+00 8.3675825916763760e+00 0 1 0
4066 1356 1 -8.4719999999999995e-01 1.6746132482925216e+01 7.6637066818736077e+00 8.2847050802901840e+00 -1 1 0
3162 1054 2 4.2359999999999998e-01 1.4029835606785134e+01 8.4326155639136537e+00 1.3526608769038519e+00 0 0 0
465 155 2 4.2359999999999998e-01 1.5031617938357625e+01 1.4622122812527107e+00 1.8877106598540736e+00 0 0 0
848 283 2 4.2359999999999998e-01 1.2564240904177050e+01 1.3499939002839008e+00 5.5868438601596369e+00 0 1 0
10 4 1 -8.4719999999999995e-01 1.2851818037189501e+01 8.5712181621149899e+00 2.8582866666345819e+00 0 1 1
4289 1430 2 4.2359999999999998e-01 1.1414166881468951e+01 1.8857580360066080e+00 3.0541200684445093e+00 0 1 1
12 4 2 4.2359999999999998e-01 1.2028684058792305e+01 8.0373200315554563e+00 2.7148856372690395e+00 0 1 1
3161 1054 2 4.2359999999999998e-01 1.5634870255189547e+01 8.1734086993665507e+00 1.3343120243559761e+00 0 0 0
718 240 1 -8.4719999999999995e-01 1.6907807285529707e+01 8.2235813245635168e+00 2.3686615376937477e+00 0 0 0
4007 1336 2 4.2359999999999998e-01 1.1476922914870332e+01 7.3041623712367789e+00 9.1730270312904132e+00 0 1 0
2581 861 1 -8.4719999999999995e-01 1.6408686903778563e+01 2.4574465428617236e+00 8.9053934027193513e+00 0 1 0
427 143 1 -8.4719999999999995e-01 1.7202375281078311e+01 3.4462429345870449e+00 3.2899517422857603e+00 0 0 0
429 143 2 4.2359999999999998e-01 1.6218162745247643e+01 3.3197613027594146e+00 3.0871522903694437e+00 0 0 0
4068 1356 2 4.2359999999999998e-01 1.7670509312729205e+01 7.6498100804918732e+00 7.8714194371055290e+00 -1 1 0
719 240 2 4.2359999999999998e-01 1.7260791372493689e+01 9.1421588925460000e+00 2.5990162868153455e+00 0 0 0
3848 1283 2 4.2359999999999998e-01 1.7531051934146426e+01 4.1048474726730992e+00 5.9392138125722038e+00 -1 0 0
1967 656 2 4.2359999999999998e-01 9.4948256821940404e+00 8.4037097766950204e+00 7.8254395071313612e+00 0 0 0
3668 1223 2 4.2359999999999998e-01 6.9320493737558264e+00 1.3224557516459949e+00 1.4536137998870908e+01 0 -1 0
3272 1091 2 4.2359999999999998e-01 8.5916836708988740e+00 5.0890709802218996e+00 1.6919870215658523e+01 0 1 0
2801 934 2 4.2359999999999998e-01 5.6676609472192796e+00 1.5191549038140377e+00 1.7453139186726872e+01 0 0 0
4382 1461 2 4.2359999999999998e-01 1.3264992426207440e+00 1.3986490914024774e+00 1.1753963963798659e+01 0 2 0
3245 1082 2 4.2359999999999998e-01 2.6186094108859947e+00 5.6914477880947718e+00 1.6509366225523671e+01 1 0 0
4383 1461 2 4.2359999999999998e-01 1.8834370217087175e+00 1.4302921868553979e+00 1.0206244204485403e+01 0 2 0
1961 654 2 4.2359999999999998e-01 5.4472905086583800e+00 1.2644424708845132e+00 9.5591342917477373e+00 0 0 0
4150 1384 1 -8.4719999999999995e-01 7.7941077146276809e+00 6.6369670281418749e+00 1.7144838144834804e+01 1 0 0
2018 673 2 4.2359999999999998e-01 9.8199492726237469e-01 6.5054125316551481e+00 1.0749023333912129e+01 1 0 0
2019 673 2 4.2359999999999998e-01 1.8996658305207357e+00 5.2430072653739339e+00 1.0227887457866192e+01 1 0 0
1700 567 2 4.2359999999999998e-01 2.1097431670882498e+00 2.0257843948108505e+00 1.6438494042762343e+01 0 1 0
3246 1082 2 4.2359999999999998e-01 2.7264547383232727e+00 4.3545377024081322e+00 1.7297441800296983e+01 1 0 0
1960 654 1 -8.4719999999999995e-01 4.4811894295505965e+00 1.5497566001455660e+00 9.5617504638521496e+00 0 0 0
2901 967 2 4.2359999999999998e-01 3.2783134612211433e+00 3.1993159688627273e+00 1.3409563493174273e+01 0 1 0
2899 967 1 -8.4719999999999995e-01 2.3787144688960229e+00 3.2633524585466178e+00 1.2965446120931338e+01 0 1 0
398 133 2 4.2359999999999998e-01 1.5998032287420350e+00 7.3633276019028457e+00 1.7030194281423160e+01 1 1 0
397 133 1 -8.4719999999999995e-01 1.9272662092750006e+00 7.6131208784227429e+00 1.6105429299612055e+01 1 1 0
4205 1402 2 4.2359999999999998e-01 2.9437715467417136e+00 7.6275344667974689e+00 1.4661162569771502e+01 0 0 0
2325 775 2 4.2359999999999998e-01 1.7127294450848212e+00 7.2165942348209668e+00 1.2976330887018568e+01 0 1 0
3137 1046 2 4.2359999999999998e-01 7.6596098197332916e+00 2.4262296250811133e+00 1.0285380895751844e+01 -1 0 0
1686 562 2 4.2359999999999998e-01 5.5166706938677175e+00 3.4420994378394694e+00 1.2371968963195950e+01 0 1 0
4083 1361 2 4.2359999999999998e-01 5.6634179153820723e+00 5.9417642739721588e+00 1.5223218835476816e+01 0 0 0
4082 1361 2 4.2359999999999998e-01 4.6963504917882197e+00 5.1463801981956179e+00 1.6390204476318623e+01 0 0 0
4081 1361 1 -8.4719999999999995e-01 5.6573661627798719e+00 5.3247092912274576e+00 1.6022628004909084e+01 0 0 0
4152 1384 2 4.2359999999999998e-01 7.0102775123211156e+00 6.2421128888873838e+00 1.6659320899406779e+01 1 0 0
2017 673 1 -8.4719999999999995e-01 1.2982456075927149e+00 6.0034070143572071e+00 9.9050865072704113e+00 1 0 0
395 132 2 4.2359999999999998e-01 3.2630553709067680e+00 6.5765299543861060e+00 9.6513118610500150e+00 1 1 0
394 132 1 -8.4719999999999995e-01 4.1342370035521814e+00 7.0118180320144416e+00 9.9493007796513329e+00 1 1 0
1699 567 1 -8.4719999999999995e-01 1.9972911340265842e+00 1.4534393379753574e+00 1.5633577625462681e+01 0 1 0
3136 1046 1 -8.4719999999999995e-01 7.5259229403942705e+00 3.3494566195996929e+00 9.9213365055582639e+00 -1 0 0
1064 355 2 4.2359999999999998e-01 3.8020041339996484e+00 3.1373603487372761e+00 1.0093509309069406e+01 0 0 0
3244 1082 1 -8.4719999999999995e-01 3.2208928897297358e+00 4.9126834835983146e+00 1.6658677667406156e+01 1 0 0
1685 562 2 4.2359999999999998e-01 5.5879500176185122e+00 3.0361402947435137e+00 1.3980748859591987e+01 0 1 0
2354 785 2 4.2359999999999998e-01 6.7937099787633262e+00 7.6168371934932635e+00 1.0816434144583640e+01 1 1 0
1684 562 1 -8.4719999999999995e-01 5.1857202828883775e+00 2.7623217257543673e+00 1.3051109649537073e+01 0 1 0
1063 355 1 -8.4719999999999995e-01 3.3008833127140256e+00 3.9650140236218623e+00 1.0401585116048672e+01 0 0 0
1144 382 1 -8.4719999999999995e-01 5.8476969169825894e+00 6.9614668847656205e+00 1.3993118919481340e+01 0 1 0
1146 382 2 4.2359999999999998e-01 6.1617607091647590e+00 7.8701176683259657e+00 1.4392912756241516e+01 0 1 0
1225 409 1 -8.4719999999999995e-01 5.8534438994950033e+00 4.8059832007782699e+00 1.1085469527056491e+01 1 0 0
1226 409 2 4.2359999999999998e-01 4.9533276798974804e+00 4.7191948801937098e+00 1.0618678265132763e+01 1 0 0
1227 409 2 4.2359999999999998e-01 6.5439941632353360e+00 4.2235581832557756e+00 1.0590926915624621e+01 1 0 0
1765 589 1 -8.4719999999999995e-01 6.7775386975727567e+00 2.9592394522644230e+00 1.5160003224835680e+01 0 0 0
1065 355 2 4.2359999999999998e-01 2.9034902688206112e+00 3.8019383449962048e+00 1.1284420954932145e+01 0 0 0
2353 785 1 -8.4719999999999995e-01 7.1295832358587194e+00 6.9335951622881149e+00 1.1516699502921096e+01 1 1 0
4204 1402 1 -8.4719999999999995e-01 3.2191508676857663e+00 7.3492301718583644e+00 1.3700062359300821e+01 0 0 0
396 132 2 4.2359999999999998e-01 3.9816567776005329e+00 7.5575058143850873e+00 1.0793345435787861e+01 1 1 0
1145 382 2 4.2359999999999998e-01 6.3543459447137263e+00 6.8738025613457641e+00 1.3110153572605363e+01 0 1 0
1766 589 2 4.2359999999999998e-01 6.4389681053437906e+00 3.5984425796256083e+00 1.5830294171171950e+01 0 0 0
399 133 2 4.2359999999999998e-01 1.1613351580667970e+00 7.8981132892404533e+00 1.5516799761668127e+01 1 1 0
2025 675 2 4.2359999999999998e-01 8.8679226399891462e+00 7.7021005810803524e+00 1.6631316237402761e+01 0 0 0
3285 1095 2 4.2359999999999998e-01 8.6258156255062826e+00 6.5514111153892030e+00 1.2144419527502320e+01 0 0 0
1767 589 2 4.2359999999999998e-01 7.6239636902619683e+00 3.3276680764282283e+00 1.4827248485200345e+01 0 0 0
4206 1402 2 4.2359999999999998e-01 4.1574417195203743e+00 7.0303952805200165e+00 1.3728821660168409e+01 0 0 0
689 230 2 4.2359999999999998e-01 3.4505946856744232e+00 8.1551563871312442e+00 1.6682105647989022e+01 0 1 0
4381 1461 1 -8.4719999999999995e-01 1.0543436740537411e+00 1.5628886583771502e+00 1.0796403913334739e+01 0 2 0
2355 785 2 4.2359999999999998e-01 6.6150457625912793e+00 6.0601471779652814e+00 1.1363802337734151e+01 1 1 0
2900 967 2 4.2359999999999998e-01 1.6806243870690594e+00 3.4473914807009218e+00 1.3670996689656119e+01 0 1 0
303 101 2 4.2359999999999998e-01 8.6878738970249447e+00 2.2524033175600868e+00 1.2820540706633890e+01 0 0 0
2461 821 1 -8.4719999999999995e-01 9.0210245548015671e+00 4.4129920045752318e+00 1.4182132580237404e+01 -1 0 0
584 195 2 4.2359999999999998e-01 1.2832765147347139e+01 5.9990741473687104e-01 1.3104850885746288e+01 0 0 0
985 329 1 -8.4719999999999995e-01 9.4405981907634491e+00 9.0161493847694079e+00 1.0543912506249315e+01 1 1 0
2324 775 2 4.2359999999999998e-01 7.5656409862677720e-01 6.0019356003509143e+00 1.3059265846740468e+01 0 1 0
2880 960 2 4.2359999999999998e-01 1.1557641008196140e+00 9.1108049632542212e+00 1.0330692658243128e+01 0 1 0
2323 775 1 -8.4719999999999995e-01 9.2658710225049812e-01 6.7904519862856123e+00 1.2462248623496057e+01 0 1 0
688 230 1 -8.4719999999999995e-01 4.2519105332319347e+00 8.6918450075894782e+00 1.7016682759290109e+01 0 1 0
3669 1223 2 4.2359999999999998e-01 5.7311921887710415e+00 7.7629092135987743e-01 1.3659354764486594e+01 0 -1 0
3043 1015 1 -8.4719999999999995e-01 7.0286673602014793e-01 9.1046353151816717e-01 6.2950192621613237e+00 0 1 0
2188 730 1 -8.4719999999999995e-01 3.2046589639723870e+00 9.1330645159547501e+00 7.8130193420063936e+00 1 0 0
4442 1481 2 4.2359999999999998e-01 1.4164310443135193e+01 4.5834360584477754e+00 1.7050343312393380e+01 -1 1 0
3990 1330 2 4.2359999999999998e-01 1.6585586033502810e+01 6.5200271361917936e+00 1.1646742228744367e+01 -1 1 0
3271 1091 1 -8.4719999999999995e-01 9.3414016450498316e+00 4.4281235931267844e+00 1.7118447713977240e+01 0 1 0
380 127 2 4.2359999999999998e-01 9.8850316490794690e+00 5.2265746545583180e+00 1.1155415349313131e+01 0 1 0
2255 752 2 4.2359999999999998e-01 1.0292895323919698e+01 1.1721910766621850e+00 9.0642400926392224e+00 0 1 0
4008 1336 2 4.2359999999999998e-01 1.0265159693187732e+01 6.1868880219448164e+00 9.4956251077471627e+00 0 1 0
302 101 2 4.2359999999999998e-01 1.0000005536155619e+01 1.4513888240246007e+00 1.3254866694739729e+01 0 0 0
289 97 1 -8.4719999999999995e-01 1.1329829207240833e+01 5.1278441982498126e+00 1.5530056109438338e+01 0 0 0
15 5 2 4.2359999999999998e-01 9.3084109569666591e+00 9.1091300831381865e+00 1.2571150168727465e+01 0 1 0
1228 410 1 -8.4719999999999995e-01 1.7547980590655019e+01 1.0038834866574686e+00 1.3580163153594389e+01 1 0 0
379 127 1 -8.4719999999999995e-01 9.8669124456501969e+00 4.8501747145220735e+00 1.0197215311879990e+01 0 1 0
2730 910 2 4.2359999999999998e-01 1.3980684526254533e+01 5.3206343306095629e+00 1.2151704971126726e+01 0 0 0
3283 1095 1 -8.4719999999999995e-01 9.6171514695757665e+00 6.4116769955914314e+00 1.2412187883658369e+01 0 0 0
2002 668 1 -8.4719999999999995e-01 1.5636242078194647e+01 5.5923787828370033e+00 1.6697683745435032e+01 -1 0 0
2463 821 2 4.2359999999999998e-01 9.0485134136695056e+00 4.9906960931610431e+00 1.3335089233072489e+01 -1 0 0
3284 1095 2 4.2359999999999998e-01 9.8688377685525719e+00 7.1888423360319971e+00 1.3020218870435841e+01 0 0 0
301 101 1 -8.4719999999999995e-01 9.4943568572643411e+00 1.8209629282450244e+00 1.2483564530568081e+01 0 0 0
4418 1473 2 4.2359999999999998e-01 1.6944223869093097e+01 2.8299941237998638e+00 1.7441177521860283e+01 0 1 0
1066 356 1 -8.4719999999999995e-01 1.3353144958455756e+01 6.6337514018196044e+00 1.2721538200976553e+01 1 -1 0
291 97 2 4.2359999999999998e-01 1.2099651585074795e+01 4.8519543605582021e+00 1.6106272744227589e+01 0 0 0
3771 1257 2 4.2359999999999998e-01 1.7053289102508334e+01 1.0323998037289048e+00 1.5622398347041685e+01 1 1 0
1108 370 1 -8.4719999999999995e-01 1.7302736351527361e+01 5.7796414953878639e+00 1.4606293003260465e+01 0 0 0
553 185 1 -8.4719999999999995e-01 1.1372560345632849e+01 1.5457295927835366e+00 1.0529812572741664e+01 0 0 0
4116 1372 2 4.2359999999999998e-01 1.4770690660482440e+01 8.7622293669145161e+00 1.6131424468176721e+01 0 0 0
346 116 1 -8.4719999999999995e-01 1.0500489711617755e+01 1.8708151782870275e+00 1.7666244573035403e+01 1 0 0
2728 910 1 -8.4719999999999995e-01 1.4345896116378801e+01 4.8103254556143158e+00 1.1383874700287031e+01 0 0 0
3019 1007 1 -8.4719999999999995e-01 1.4002964639756209e+01 1.7874077059668616e+00 1.5806581933220537e+01 0 0 0
3769 1257 1 -8.4719999999999995e-01 1.6553631448548689e+01 1.2578952069303189e+00 1.6435728895771256e+01 1 1 0
869 290 2 4.2359999999999998e-01 1.0665144105159737e+01 1.8168585339703480e+00 1.5751147943884721e+01 -1 1 0
4313 1438 2 4.2359999999999998e-01 1.5494258120611970e+01 3.3950820554659282e+00 1.1779824172267915e+01 0 1 0
381 127 2 4.2359999999999998e-01 9.0141636061912109e+00 4.2594063233648622e+00 9.9816558384989715e+00 0 1 0
870 290 2 4.2359999999999998e-01 1.1529354599735985e+01 1.2598712648420132e+00 1.4441778182247415e+01 -1 1 0
583 195 1 -8.4719999999999995e-01 1.2667474216957014e+01 1.6409651474412190e+00 1.3223483724608725e+01 0 0 0
2024 675 2 4.2359999999999998e-01 9.1531676863112494e+00 8.9429839451235011e+00 1.5520448886774998e+01 0 0 0
3988 1330 1 -8.4719999999999995e-01 1.6390619786000215e+01 6.4525311253231799e+00 1.0676841965475738e+01 -1 1 0
887 296 2 4.2359999999999998e-01 1.1154923612308401e+01 8.2698461825851908e+00 1.5256884865831548e+01 1 0 0
3768 1256 2 4.2359999999999998e-01 1.1665484494797731e+01 4.4721382291943339e+00 9.5219550038941492e+00 -1 0 0
4312 1438 1 -8.4719999999999995e-01 1.5634527399293635e+01 2.4537706564091160e+00 1.2147158163719356e+01 0 1 0
2431 811 1 -8.4719999999999995e-01 1.3861823292160175e+01 8.6078595311603170e+00 1.0973118080501173e+01 0 0 0
868 290 1 -8.4719999999999995e-01 1.0652997745292950e+01 1.1903262005604871e+00 1.4983293164826847e+01 -1 1 0
888 296 2 4.2359999999999998e-01 1.2518708592027259e+01 8.7080233188598442e+00 1.4470973470171321e+01 1 0 0
3273 1091 2 4.2359999999999998e-01 1.0173154629708071e+01 4.7431860456959614e+00 1.6611779075901218e+01 0 1 0
1229 410 2 4.2359999999999998e-01 1.6798441787298056e+01 1.5585136279761693e+00 1.3177024540364016e+01 1 0 0
2003 668 2 4.2359999999999998e-01 1.6096632814873960e+01 4.8835664362471007e+00 1.7316729643513280e+01 -1 0 0
2462 821 2 4.2359999999999998e-01 9.9280968746337770e+00 4.6585608456914196e+00 1.4587911056690237e+01 -1 0 0
4067 1356 2 4.2359999999999998e-01 1.6735935219349312e+01 7.2507570256945568e+00 9.2423982693072553e+00 -1 1 0
4441 1481 1 -8.4719999999999995e-01 1.3391781627552314e+01 4.0678563079136616e+00 1.7301257549640884e+01 -1 1 0
2583 861 2 4.2359999999999998e-01 1.6005940927811054e+01 1.5496579860439628e+00 9.0649058243213751e+00 0 1 0
4338 1446 2 4.2359999999999998e-01 1.4599502652806544e+01 7.0850442395118147e+00 1.7418070384519719e+01 2 0 0
2605 869 1 -8.4719999999999995e-01 1.6107735713003535e+01 7.9872202794719618e+00 1.3124658386899547e+01 1 1 0
3770 1257 2 4.2359999999999998e-01 1.5561171571806884e+01 1.3806577235474440e+00 1.6194333994509051e+01 1 1 0
886 296 1 -8.4719999999999995e-01 1.1944643747071490e+01 7.8880534049319930e+00 1.4753858732907897e+01 1 0 0
2729 910 2 4.2359999999999998e-01 1.3496741399191109e+01 4.6305481691850119e+00 1.0742496348947750e+01 0 0 0
3020 1007 2 4.2359999999999998e-01 1.3689890299317618e+01 2.6491141131469860e+00 1.6211151446808355e+01 0 0 0
2607 869 2 4.2359999999999998e-01 1.5530645414449383e+01 8.2988386880902496e+00 1.3849846359892149e+01 1 1 0
987 329 2 4.2359999999999998e-01 9.5443208286434071e+00 8.1276518854751849e+00 1.0081408236050326e+01 1 1 0