COLLOID-IMAGE TESTING SYSTEM

4  atoms
1  atom types

-6 6 xlo xhi
-6 6 ylo yhi
-6 6 zlo zhi

Masses

       1  100000000
Atoms

1   1   1    0   0    0
2   1   1   3   0    0
3   1   1   1.5  2   0
4   1   1   1.5  -2  0
