4499
Atoms. Timestep: 10100
1 7.48024 31.2132 23.2075
2 8.01064 31.4792 24.0071
2 7.88373 31.7121 22.3968
1 33.6711 31.8373 18.7248
2 33.7322 31.412 19.6276
2 32.994 31.3473 18.2191
1 31.9425 17.2149 20.8709
2 32.2392 18.1558 20.7049
2 32.3386 16.9042 21.7398
1 9.72407 4.03363 32.2761
2 10.6059 4.39956 32.0597
2 9.23228 4.74573 32.7643
1 8.74379 7.92601 19.146
2 7.7499 7.85247 18.9016
2 8.81375 8.25369 20.0724
1 1.89029 29.9779 21.7377
2 2.32647 30.9088 21.7369
2 1.83963 29.6562 22.6766
1 23.2034 9.58875 31.5791
2 22.66 9.27164 30.7754
2 22.7808 10.4665 31.929
1 13.4124 12.6354 30.5035
2 13.8847 13.2486 31.094
2 13.4277 11.7718 30.9658
1 26.584 23.2348 25.2782
2 26.5435 24.1401 25.742
2 25.639 22.9406 25.1661
1 10.5645 2.05963 21.2541
2 11.2855 2.55014 20.7271
2 11.0409 1.82099 22.0667
1 17.5728 4.14597 32.0304
2 16.6035 3.72851 32.094
2 17.9807 3.94426 32.9288
1 12.6421 28.1848 17.4645
2 12.3911 28.9006 18.1667
2 11.775 27.9039 17.0666
1 12.9677 6.13715 0.68186
2 12.8378 5.50293 35.4009
2 12.3454 5.76913 1.39033
1 15.3062 21.5331 21.4395
2 15.6102 22.4909 21.261
2 14.3566 21.5665 21.6411
1 16.7546 21.5892 9.82109
2 16.4491 20.973 10.5503
2 16.8502 21.0378 8.96405
1 20.3124 25.3352 16.4085
2 20.6259 25.2305 15.4473
2 19.5006 24.6999 16.6351
1 32.4151 14.4874 14.3541
2 32.6977 14.5759 13.3965
2 33.217 14.1034 14.8149
1 23.3466 12.478 25.5115
2 23.4225 11.7332 26.2094
2 23.0259 12.0065 24.6591
1 1.33689 21.6108 0.895634
2 1.31437 21.2709 1.8683
2 0.792406 20.9603 0.313835
1 19.3179 29.2885 32.3606
2 20.2268 29.3749 31.8963
2 19.3186 29.9906 33.0704
1 8.37873 27.2091 0.321873
2 7.82785 27.6744 35.0668
2 7.9816 27.5423 1.17135
1 8.98094 8.66999 31.9459
2 7.99827 8.86684 31.7417
2 9.29462 9.40412 32.5514
1 17.3521 8.20845 3.32872
2 16.6061 8.75155 2.96501
2 16.9647 7.36055 3.72805
1 13.0768 10.4964 22.5014
2 12.2396 10.4618 23.0413
2 13.8732 10.2727 23.1062
1 26.8358 4.23773 8.04048
2 27.6941 3.72107 8.18827
2 26.2224 4.0167 8.79423
1 22.0675 3.74975 5.9732
2 21.3855 4.27223 6.52255
2 22.5002 3.0929 6.59611
1 20.8721 16.7778 12.0071
2 20.5615 15.8982 11.7077
2 20.3833 17.4206 11.3902
1 16.0587 3.72981 25.1875
2 16.7989 3.1872 24.7469
2 16.4168 4.68341 25.0653
1 21.514 26.3249 20.7326
2 21.1271 26.7095 19.8652
2 22.4645 26.6657 20.7701
1 11.6426 1.9235 3.8065
2 11.1921 1.87726 2.90749
2 12.528 2.31793 3.71385
1 5.82725 30.3643 21.4364
2 5.13697 31.1277 21.4419
2 6.44845 30.6405 22.2174
1 26.4002 31.8902 3.51317
2 26.5089 32.872 3.31762
2 27.2755 31.5365 3.86275
1 33.2952 27.2906 13.143
2 33.3269 27.8435 12.292
2 34.1681 27.4935 13.6214
1 35.5196 15.9724 30.3288
2 35.4831 15.7047 29.3825
2 34.9838 15.3159 30.8513
1 22.5171 25.2375 14.7519
2 22.7876 25.6893 15.6977
2 22.9747 24.3219 14.7004
1 11.238 31.9356 26.4614
2 11.2797 30.9315 26.4988
2 11.5235 32.3328 27.3374
1 17.2994 35.1129 23.7469
2 17.9969 34.7613 23.0815
2 17.0372 34.3635 24.3006
1 7.9442 18.9328 12.437
2 8.24252 19.7697 12.8875
2 7.49724 18.3574 13.1552
1 27.6619 24.643 0.546589
2 28.5211 25.0113 0.205908
2 26.8825 25.0105 35.4665
1 17.1294 15.6583 10.0712
2 17.4187 15.1874 9.19506
2 17.4296 15.1284 10.8969
1 6.14302 5.73136 2.94282
2 6.67949 4.93393 3.10022
2 5.17401 5.48143 3.16632
1 12.9646 35.3885 21.9281
2 13.897 0.271627 21.7588
2 12.5443 0.420496 22.6762
1 19.66 33.9623 25.6911
2 19.3503 33.7608 26.6314
2 19.6908 33.0993 25.2026
1 13.9531 0.976056 18.3596
2 14.8155 1.5206 18.1744
2 14.2874 0.0189635 18.5155
1 26.1703 21.4764 27.8001
2 26.7814 21.0903 28.5179
2 26.0473 22.4549 27.9852
1 30.2028 13.3571 35.0632
2 30.077 13.0454 0.605286
2 29.9315 14.3536 35.0294
1 17.2872 22.5777 33.7547
2 17.4246 22.7938 32.799
2 18.0862 22.8062 34.2867
1 29.404 19.3802 26.3307
2 30.0643 18.9948 25.6111
2 28.911 18.6072 26.6649
1 11.6098 7.65603 31.0019
2 11.6259 6.67573 31.2984
2 10.6201 7.96917 31.0379
1 5.56391 1.26289 28.3064
2 4.56025 1.07134 28.4488
2 5.6589 1.8469 27.4987
1 23.0328 17.7485 15.5982
2 23.6079 18.345 15.049
2 22.1524 18.2077 15.6891
1 16.0886 31.0434 19.5406
2 15.8353 31.0656 18.5815
2 15.9206 31.9005 20.0042
1 29.0677 6.97996 23.4542
2 28.1969 6.71979 23.7971
2 28.9404 7.75924 22.8129
1 34.4524 6.06909 1.79931
2 35.4101 5.97739 1.49099
2 34.1581 7.02506 1.44506
1 32.0973 28.7632 20.0535
2 32.3468 28.7294 19.0535
2 32.9836 28.9478 20.5194
1 8.47503 32.6966 21.1593
2 9.47409 33.0103 21.0972
2 7.93012 33.3095 20.5964
1 10.4149 5.86157 9.87091
2 9.57276 5.78411 9.31553
2 10.7517 4.8845 9.93003
1 32.5767 28.67 32.4149
2 33.2588 29.4028 32.538
2 31.9703 28.8005 33.2179
1 34.2708 27.2776 22.0289
2 33.857 26.3653 21.9219
2 34.0322 27.6853 22.8915
1 21.25 29.7802 17.9147
2 21.7676 30.0711 18.7501
2 20.7793 28.8633 18.091
1 33.6128 4.94167 14.6321
2 34.3488 4.40029 14.2456
2 33.5269 4.67728 15.5737
1 18.3905 19.8081 15.3467
2 17.6541 19.2233 15.3472
2 18.8743 19.731 16.2019
1 18.9337 15.7302 22.2167
2 19.5233 16.5387 22.1368
2 19.5961 14.9882 22.3926
1 12.9685 16.0692 8.00351
2 12.4277 15.9284 8.81163
2 13.4853 15.2175 7.87577
1 0.154157 25.1856 3.4972
2 34.9508 24.935 2.84372
2 0.749811 24.4057 3.49291
1 3.63384 22.9173 32.4047
2 3.69197 23.7728 31.8196
2 3.10538 23.1126 33.2673
1 1.07209 34.8669 34.3555
2 1.02109 0.378593 34.2711
2 0.180252 34.6505 34.8083
1 33.1478 34.3884 7.85953
2 33.4142 33.4505 7.63371
2 32.2685 34.3662 8.40061
1 22.2888 7.73796 17.8672
2 21.3092 7.62672 17.8571
2 22.6042 7.39556 16.9769
1 2.77021 30.3364 26.8946
2 3.60835 30.1342 26.4244
2 3.00163 30.1998 27.8715
1 24.1887 30.3387 3.99993
2 23.4617 30.8717 4.47744
2 24.9191 30.9356 3.68352
1 1.10243 4.62021 23.9748
2 1.95855 5.17613 24.043
2 0.382728 5.11929 24.4922
1 23.0829 33.0063 5.52784
2 23.203 32.9023 6.53723
2 23.0082 33.9865 5.3107
1 30.8847 3.26591 25.7077
2 30.233 2.54224 25.7437
2 30.4839 4.00197 26.2429
1 8.74403 32.3347 25.304
2 8.07022 31.7481 25.7982
2 9.58496 32.2833 25.8816
1 29.9791 5.3813 16.1774
2 30.4126 5.15337 15.32
2 30.6776 5.89907 16.6865
1 33.984 26.3658 32.6645
2 33.4245 25.6152 32.3082
2 33.475 27.1963 32.5055
1 0.367073 27.1338 7.23734
2 0.355968 27.8462 6.53563
2 35.1385 26.4504 7.01304
1 32.6039 20.7745 31.5663
2 31.6165 20.438 31.4532
2 33.1728 19.9617 31.4164
1 13.5992 13.6181 3.97736
2 14.3807 14.2497 4.05054
2 12.9168 14.0975 3.41063
1 27.3185 18.6127 5.06788
2 27.6058 17.7034 4.74524
2 26.2772 18.5823 5.16586
1 29.7319 16.0863 29.5304
2 28.7928 16.2492 29.2467
2 30.0583 17.0279 29.6937
1 4.31413 18.9815 21.9391
2 3.94338 19.9071 22.1799
2 4.99264 18.7461 22.6945
1 1.71725 8.1099 19.5143
2 1.31 8.51087 20.3397
2 1.64121 8.73221 18.7446
1 23.4967 5.10116 22.2369
2 24.4619 4.89116 22.0267
2 23.225 5.8765 21.699
1 29.2358 20.5196 5.02965
2 29.9422 19.7733 4.90497
2 28.3305 20.0455 4.92237
1 33.5783 10.5593 14.8345
2 32.6658 10.3544 14.4662
2 34.2072 10.1033 14.2083
1 16.3261 7.90387 9.21378
2 15.4462 8.31631 9.03548
2 16.4176 7.81797 10.2491
1 29.5815 31.1753 21.6292
2 29.386 30.5132 22.4125
2 29.563 30.5989 20.795
1 1.93482 10.8154 29.6214
2 2.71592 10.4892 29.0301
2 2.26822 10.9024 30.548
1 0.313485 16.8451 18.1366
2 34.8627 17.0083 18.084
2 0.408763 16.4235 19.0525
1 2.09281 8.00646 12.2043
2 1.42242 8.50603 12.7118
2 2.10824 7.08525 12.5772
1 5.93126 2.31989 25.7302
2 5.58745 2.01474 24.8074
2 6.90231 2.07369 25.7199
1 34.8615 2.14881 17.1917
2 0.216551 2.65577 17.2877
2 34.1139 2.8243 17.0415
1 2.1722 28.8995 13.2525
2 2.17444 29.9085 13.1436
2 2.86061 28.7554 14.041
1 3.83614 7.52899 15.7911
2 3.98626 7.39413 16.7387
2 4.611 8.09194 15.4575
1 10.6467 10.114 18.6092
2 11.2332 9.93358 17.8137
2 10.39 9.25915 19.0269
1 4.12369 30.6308 2.37853
2 3.13227 30.7211 2.54414
2 4.54192 31.55 2.50591
1 34.5843 2.85553 5.38449
2 35.3078 2.37554 4.85366
2 34.3851 3.68931 4.81013
1 2.73439 2.84649 9.51926
2 2.07797 2.68451 10.2938
2 3.16449 1.97093 9.23011
1 8.17666 2.7792 10.6786
2 8.15844 2.37729 11.6358
2 7.67986 3.65145 10.6565
1 32.1242 9.89609 31.809
2 31.3354 10.0686 31.2005
2 32.8926 10.0546 31.2191
1 24.2889 5.69313 5.68609
2 25.1176 5.87549 5.1443
2 23.583 5.28891 5.10045
1 10.9924 1.21291 6.79132
2 10.8791 0.85967 5.84485
2 10.0523 1.30663 7.18577
1 9.01438 22.8858 12.9204
2 8.30353 22.5353 13.5305
2 9.66338 22.1225 12.8168
1 6.02561 18.0465 10.7909
2 6.5515 18.4269 11.5575
2 5.58087 18.8311 10.3596
1 9.41464 29.5015 12.9481
2 9.98876 28.7373 12.5112
2 8.441 29.4064 12.607
1 16.2398 27.8918 33.2257
2 17.0951 28.0778 32.7593
2 16.3378 27.1128 33.8091
1 15.2458 27.6616 17.7432
2 15.4581 26.7493 17.4496
2 14.2681 27.696 17.7033
1 30.326 11.2576 20.7885
2 29.8905 10.3831 20.8058
2 29.6702 11.9649 21.03
1 15.7018 18.7789 22.2459
2 16.252 19.0821 23.0698
2 15.5381 19.6459 21.705
1 24.2218 32.1907 16.9847
2 25.106 31.7076 16.8137
2 23.5955 31.9648 16.1978
1 14.0801 6.35221 29.7038
2 13.5518 7.05669 30.16
2 14.8052 6.84817 29.224
1 4.37058 35.1453 3.80835
2 4.90349 34.8194 4.60579
2 3.40416 35.1803 4.05178
1 21.4711 21.4374 9.31287
2 21.9294 20.7053 9.85198
2 20.7483 21.045 8.79444
1 4.73513 4.45484 18.7777
2 4.68784 3.47131 19.0272
2 3.99673 4.9579 19.1818
1 11.8503 12.6929 27.7819
2 12.0103 11.8065 28.2098
2 12.3441 13.3983 28.315
1 7.52335 3.67382 17.6702
2 6.83976 3.89178 16.9881
2 7.04725 3.26052 18.4604
1 4.48432 16.4048 0.320857
2 4.7058 15.7435 35.0006
2 4.57952 17.3126 35.3592
1 2.11577 16.8205 22.3379
2 2.89702 17.4247 22.2091
2 1.45463 17.3654 22.8738
1 19.9222 30.7731 15.7387
2 19.0741 31.2783 15.9221
2 20.2551 30.3688 16.5817
1 32.6271 12.7074 22.1289
2 32.3264 12.2732 21.269
2 33.5152 13.1401 21.9567
1 35.3455 16.3674 3.51584
2 0.595276 16.7519 4.02208
2 0.0906611 16.2788 2.54175
1 5.38946 25.8887 5.01389
2 4.58085 26.296 5.47822
2 5.45879 24.915 5.21083
1 17.2918 22.2348 14.86
2 16.4938 21.7065 15.1746
2 18.0926 21.5854 14.7141
1 23.5631 19.2133 7.74724
2 22.7021 18.8732 7.4116
2 23.4047 20.2131 7.97544
1 5.89915 3.14268 34.9646
2 5.55932 3.07179 0.489357
2 5.8481 4.08879 34.5506
1 25.7896 32.2621 13.5771
2 25.2713 33.127 13.8794
2 26.6705 32.3992 14.0094
1 7.24968 32.4185 12.4982
2 7.09824 32.6007 13.5022
2 8.27781 32.5061 12.3735
1 3.69469 4.56122 3.09719
2 3.23108 4.36814 3.95518
2 4.17801 3.7296 2.83065
1 4.06513 14.5486 28.4266
2 4.37775 14.2838 27.5155
2 3.08458 14.7819 28.3173
1 1.51611 9.65811 4.35865
2 1.93169 10.5048 4.02339
2 1.48216 8.99737 3.57399
1 2.09567 11.4647 15.302
2 1.73949 12.4082 15.0522
2 3.11731 11.6005 15.3391
1 18.1764 23.7509 16.8274
2 17.6806 23.3647 16.0297
2 18.3784 22.9782 17.4361
1 7.47557 3.86111 4.6919
2 7.04106 3.89991 5.58686
2 8.43651 4.10998 4.82365
1 6.72189 33.149 15.3828
2 6.6873 34.0383 15.8891
2 7.40778 32.5585 15.7916
1 3.53451 21.269 22.7619
2 2.91833 21.7466 22.111
2 4.24124 21.9618 22.9901
1 13.7692 22.4631 9.32509
2 13.1758 23.0361 9.94423
2 14.7572 22.5857 9.57599
1 1.7209 3.7089 17.4392
2 2.01607 4.29063 18.2237
2 2.21618 3.9928 16.624
1 19.5576 31.7407 24.0196
2 18.9675 30.9905 23.6887
2 20.392 31.2932 24.2986
1 26.3522 19.2739 9.25013
2 26.213 19.5144 8.28926
2 25.872 18.3846 9.40348
1 30.0512 9.86542 34.7789
2 29.3832 10.5622 34.4729
2 30.0667 9.10788 34.1127
1 24.6639 8.1244 2.32923
2 25.1151 7.55612 3.00852
2 25.4049 8.49941 1.78267
1 19.8593 19.8826 19.5983
2 19.1024 19.3411 19.9636
2 20.7049 19.5834 20.021
1 4.37636 0.966082 23.7536
2 4.787 1.42617 22.999
2 3.39136 1.03242 23.7721
1 24.8227 19.2698 20.537
2 25.6422 18.7175 20.2556
2 25.0951 19.7609 21.3832
1 10.3092 1.92806 1.27433
2 10.2192 2.32271 0.372013
2 10.8899 1.13524 1.17147
1 19.4089 22.7647 12.3848
2 19.6763 23.7676 12.6288
2 18.6555 22.7936 11.7783
1 31.7427 4.19867 29.7169
2 30.9123 3.81746 29.2086
2 32.4967 4.16887 29.052
1 19.8267 19.7547 8.2223
2 20.2155 18.9461 7.73089
2 18.9208 20.1274 7.85487
1 21.569 2.99893 25.2675
2 21.1363 3.00759 24.364
2 21.4383 2.0466 25.6433
1 22.0653 30.75 0.306434
2 22.0085 31.6961 35.4178
2 21.1707 30.3214 0.18997
1 16.2982 32.1718 13.5412
2 16.5762 33.1084 13.7403
2 15.7706 32.2417 12.7231
1 33.2281 20.6708 3.34682
2 32.3285 21.1505 3.45292
2 33.4082 20.5479 2.37491
1 17.2085 33.6055 5.85586
2 16.1894 33.5211 5.83254
2 17.5085 33.749 4.87235
1 23.0444 7.97614 6.38609
2 23.4491 7.13455 6.03097
2 22.8647 8.52843 5.56332
1 17.7402 14.7676 30.7342
2 17.7118 13.8761 31.1961
2 17.471 15.4673 31.3844
1 34.8098 9.87855 5.6088
2 34.2559 10.3938 4.92924
2 0.166079 9.69192 5.12771
1 29.4481 30.2875 26.5167
2 28.5884 30.3853 27.1204
2 29.9459 29.4012 26.7764
1 30.0083 5.82121 1.7092
2 30.8914 5.66248 1.24805
2 30.0824 6.67119 2.25923
1 13.822 22.4433 17.4733
2 14.4343 21.8192 18.0169
2 13.7763 22.0006 16.6104
1 2.00838 14.1403 35.2129
2 1.91947 13.3495 0.328425
2 1.30104 14.7659 0.0781824
1 26.5648 7.00081 12.5458
2 27.1588 7.46981 11.8389
2 26.6402 7.55404 13.4296
1 9.12233 24.3624 34.9215
2 9.10011 23.5215 35.4583
2 8.61044 25.1028 35.349
1 6.63627 23.0847 27.891
2 7.12852 23.5592 27.0939
2 5.84548 23.6604 28.1093
1 25.2936 7.00462 30.9559
2 24.7016 6.65794 30.2496
2 24.7829 6.84239 31.8466
1 16.4789 12.1379 12.4098
2 15.7497 12.39 11.7448
2 17.1847 11.6107 11.8848
1 13.9077 26.0615 5.79277
2 13.2497 25.2732 5.88636
2 14.715 25.7495 5.19558
1 13.0428 11.5522 5.53032
2 12.0814 11.3864 5.34888
2 13.2194 12.4364 5.09846
1 26.4875 25.205 20.8964
2 25.5543 25.4494 20.5956
2 26.4716 24.2466 21.2576
1 29.7962 8.42972 2.94732
2 30.2201 9.09917 2.34476
2 30.2688 8.49271 3.83111
1 29.8536 4.23299 20.5168
2 30.0364 4.25377 21.5515
2 29.0499 4.86112 20.3981
1 16.7362 5.54018 28.3394
2 17.6813 5.5532 28.5702
2 16.3416 6.4362 28.6584
1 30.9055 22.5334 23.4214
2 31.3657 23.4343 23.3998
2 31.4806 21.8964 23.9958
1 30.7775 18.7932 8.90375
2 31.4799 18.2061 9.35455
2 30.543 19.5301 9.55725
1 29.1673 32.3223 34.7748
2 29.9059 32.341 34.1181
2 28.7151 33.2266 34.6089
1 0.27258 23.7926 32.5672
2 0.371328 23.9341 33.5581
2 34.8361 23.4105 32.396
1 21.0268 26.0169 6.75515
2 20.1446 25.5698 7.02723
2 21.7316 25.555 7.33939
1 28.5347 0.358125 28.0906
2 28.0246 0.27868 29.0255
2 28.8636 34.8962 27.896
1 24.3953 27.2109 10.3621
2 24.5291 27.3804 11.3693
2 25.3026 27.2102 9.893
1 4.26562 11.8424 34.6016
2 3.50294 11.884 35.3106
2 5.10323 11.5723 35.0789
1 26.4069 1.47874 24.3778
2 26.5003 1.77722 23.4191
2 25.5767 0.895922 24.4578
1 11.7672 34.5181 3.91888
2 11.7363 35.5395 3.86833
2 11.0129 34.1274 3.34261
1 0.754539 19.3113 31.9912
2 35.4551 19.1896 31.3736
2 1.2816 20.0902 31.6084
1 11.2859 3.33333 9.60516
2 12.1922 3.20499 9.18579
2 10.6777 2.63385 9.20482
1 34.8072 22.9222 9.76691
2 35.0947 22.3768 8.97987
2 33.8899 23.2567 9.50061
1 16.5833 17.6337 12.4651
2 17.4836 17.9477 12.7577
2 16.7349 17.0386 11.7082
1 28.1352 31.8056 31.5363
2 27.5024 31.8889 30.7704
2 28.774 32.6106 31.5033
1 1.71195 1.5559 24.2732
2 1.23699 2.36711 24.0892
2 1.85442 1.56161 25.317
1 22.288 8.59865 35.0229
2 21.8517 7.74313 35.3699
2 23.052 8.23277 34.5358
1 30.7822 18.645 29.2192
2 30.3549 19.0035 28.3897
2 31.8018 18.7916 29.1427
1 16.7637 25.2708 14.5356
2 16.4949 25.0054 15.4759
2 16.8266 24.3808 14.0631
1 25.5946 22.6057 20.4894
2 24.8611 23.3231 20.3417
2 25.211 21.9191 21.0814
1 16.8047 27.3421 4.13492
2 16.3585 26.5096 4.45926
2 17.821 27.1863 4.0202
1 8.01459 1.56327 13.1594
2 8.19682 1.95609 14.0808
2 7.05317 1.51592 12.9447
1 2.7071 31.6634 12.922
2 3.23566 32.0413 13.7014
2 3.2611 31.7832 12.0632
1 22.7773 23.4271 22.7652
2 22.8852 24.316 23.1752
2 23.1042 23.4464 21.8178
1 28.1383 25.2348 17.788
2 27.2902 25.3156 17.2054
2 28.8289 25.0462 17.0457
1 24.2116 8.15905 22.595
2 24.1251 7.736 21.686
2 23.6013 8.97303 22.6006
1 6.58409 12.3303 2.79922
2 6.77257 12.7084 1.91414
2 5.72837 12.7639 3.0857
1 30.6679 7.27775 25.4893
2 31.6265 7.09772 25.1367
2 30.0605 7.09949 24.7001
1 22.8369 28.0845 27.0243
2 22.6445 27.828 27.9709
2 21.9817 28.103 26.4695
1 35.2945 8.88256 13.514
2 34.5474 8.26826 13.4695
2 0.263137 8.73421 14.4052
1 9.74186 22.4884 6.1814
2 9.762 22.3584 7.2226
2 8.97345 21.942 5.80552
1 4.71154 0.787393 16.1907
2 4.52379 0.180765 16.956
2 3.96868 0.524389 15.5027
1 11.4276 15.088 33.2293
2 10.8547 14.8619 32.4081
2 11.5626 14.1796 33.6971
1 5.79007 8.28297 25.2189
2 6.83041 8.25485 25.1893
2 5.40845 7.87322 26.0353
1 35.2759 13.5302 22.3274
2 35.2733 12.6635 22.8054
2 34.9927 14.2409 22.9227
1 29.1325 8.73856 15.5639
2 28.7996 8.47253 16.4812
2 28.4401 8.34295 14.9423
1 5.57141 14.3234 34.0364
2 5.83669 14.2448 33.0864
2 4.90527 13.5419 34.2273
1 22.8513 11.2109 9.49473
2 22.985 10.2133 9.58223
2 22.735 11.3645 8.54431
1 12.32 5.13888 31.8355
2 12.7989 4.91482 32.7294
2 12.7084 4.57002 31.1506
1 7.90002 19.9531 8.38947
2 8.11405 18.9962 8.43198
2 6.9367 20.0347 8.6801
1 27.1687 15.3651 9.45182
2 26.2149 15.2347 9.3071
2 27.4953 15.8311 8.56192
1 3.11201 6.03568 29.8135
2 3.48731 6.22253 30.7088
2 2.44221 6.79952 29.665
1 29.8778 17.3842 6.82722
2 30.1971 17.9459 7.61194
2 28.9538 17.1306 7.00109
1 4.62737 7.3113 31.7006
2 4.97102 8.24213 31.815
2 5.02585 6.7629 32.4545
1 25.4564 27.6901 26.5864
2 24.4897 27.883 26.5152
2 25.8508 27.6614 25.6763
1 19.452 12.1507 31.9419
2 18.7329 11.7054 31.3628
2 19.6949 11.5169 32.6927
1 6.69094 29.593 12.0178
2 6.6558 29.5415 10.9803
2 6.42116 30.5098 12.2602
1 28.8832 21.9827 26.7253
2 27.9106 21.9176 26.6206
2 29.2277 21.0755 26.5708
1 25.9815 8.37001 18.7763
2 26.0872 9.29222 19.2272
2 26.8855 8.00478 18.6115
1 18.0006 2.05061 4.05281
2 18.7859 2.38009 3.52216
2 18.1668 2.21637 5.0302
1 32.3071 16.1183 23.3511
2 33.0515 15.5681 23.7933
2 31.4967 15.4815 23.2412
1 31.8601 6.70244 30.9682
2 31.3282 7.50695 30.5622
2 31.6459 5.78225 30.55
1 16.9383 1.28902 10.2251
2 17.4595 0.764374 9.56152
2 16.223 0.675007 10.6522
1 31.1924 3.57718 7.49919
2 31.9826 3.09061 7.85887
2 30.343 3.03713 7.76098
1 20.266 29.1283 13.5191
2 19.5802 28.3546 13.6693
2 20.224 29.739 14.3223
1 28.33 25.2803 32.6565
2 27.9624 26.1394 32.2594
2 28.4612 25.3984 33.6287
1 3.78343 11.7327 11.6104
2 2.8652 12.0945 11.4403
2 4.31648 12.4299 12.0393
1 34.36 33.7543 12.0553
2 34.9032 33.0498 12.5518
2 33.5943 33.2978 11.5395
1 18.5161 5.23535 15.8287
2 18.0961 4.66242 15.1332
2 19.3439 5.63249 15.4646
1 30.7776 31.2098 13.1754
2 31.7388 31.0722 13.3974
2 30.2597 30.5888 13.7478
1 24.7432 17.2464 9.96634
2 24.6632 16.6556 9.1929
2 24.7905 16.6342 10.8194
1 19.8823 0.275339 15.0283
2 20.4482 1.09444 14.9087
2 19.7255 35.3691 14.1437
1 28.5951 27.61 3.0619
2 27.6452 27.7073 2.74734
2 28.7729 26.608 3.04894
1 18.2995 15.8506 14.9969
2 19.2865 15.6866 15.1138
2 17.8803 16.0902 15.8778
1 29.2261 11.9002 8.18716
2 29.7369 12.2495 7.38926
2 29.3605 10.8971 8.20286
1 18.562 30.2238 20.2924
2 19.26 30.8591 19.9037
2 17.6448 30.4747 19.8916
1 13.1509 8.78699 35.2427
2 13.1931 7.77231 0.0724809
2 12.8355 9.25308 0.654848
1 35.0327 9.97466 25.9172
2 34.5968 9.56078 26.7207
2 35.2763 10.9398 26.2249
1 15.9322 24.9369 27.9598
2 15.4688 24.2284 27.4995
2 16.6936 25.2099 27.3963
1 26.1994 6.58864 23.4929
2 25.419 7.24599 23.2613
2 26.0693 5.76075 22.9412
1 18.4374 0.340525 32.9225
2 18.2707 1.0571 32.181
2 19.2329 0.634122 33.4626
1 3.19836 33.107 19.7804
2 2.46372 33.0574 19.142
2 2.87302 32.8199 20.7072
1 34.0632 29.7908 11.202
2 33.5633 30.2627 10.424
2 34.8806 29.4093 10.8164
1 12.6119 33.7611 32.0526
2 12.6887 34.6364 32.4694
2 13.3096 33.1372 32.4596
1 27.7928 22.6885 16.0648
2 26.8132 22.6464 16.3445
2 27.8478 22.3679 15.1121
1 31.4825 34.718 34.9145
2 31.5645 34.1609 34.0975
2 31.1161 0.102873 34.6341
1 22.9608 24.9269 8.31084
2 22.87 24.996 9.31222
2 23.9428 24.9939 8.07093
1 2.90065 35.4221 9.90299
2 2.83962 0.395051 10.7983
2 3.86365 35.1447 9.81672
1 1.37306 27.6895 3.48825
2 1.25303 28.1934 2.62266
2 1.11259 26.7219 3.30817
1 18.6605 31.504 7.30687
2 17.9117 30.83 7.08841
2 18.4161 32.4036 6.91219
1 4.2116 16.0432 10.3836
2 4.99445 16.6917 10.3561
2 4.43086 15.299 9.74267
1 26.4761 30.2629 16.9692
2 27.3756 30.7096 16.9393
2 26.6501 29.2768 16.8465
1 5.72062 35.2293 34.8506
2 5.62265 34.8875 33.88
2 4.81026 35.4221 35.1858
1 27.9331 21.9926 34.869
2 27.5325 21.6075 0.27365
2 28.0685 23.0083 34.9566
1 16.5255 19.0185 4.97564
2 15.7399 18.3942 5.04629
2 17.0807 18.7646 4.18985
1 28.3 23.2992 19.444
2 27.9711 23.9642 18.743
2 27.4606 22.9384 19.7962
1 28.0959 34.7364 12.2599
2 27.6593 35.0997 13.0558
2 28.9446 34.2601 12.567
1 19.2058 31.5223 33.7684
2 18.8698 32.0802 33.0093
2 20.0838 31.9718 34.0849
1 20.2036 4.95927 10.2725
2 20.8613 5.4897 10.8287
2 19.7777 5.64462 9.7208
1 1.64876 7.71816 26.3259
2 1.30855 8.57267 25.863
2 1.7098 7.89881 27.3228
1 17.5598 19.1458 24.3612
2 18.5538 19.2606 24.1691
2 17.3459 19.8764 25
1 29.1419 17.0516 21.1508
2 30.1249 16.9696 21.0758
2 28.9014 17.2891 22.1318
1 6.55114 26.46 29.3446
2 6.51801 25.996 30.2762
2 6.12471 25.8186 28.6917
1 34.4276 1.70128 27.0006
2 34.031 0.740647 26.8358
2 35.4645 1.54574 26.8916
1 25.0431 23.376 11.7096
2 24.0173 23.6443 11.5837
2 25.603 24.2268 11.58
1 24.6091 11.9947 11.545
2 25.4372 11.9866 11.0015
2 23.9214 11.4677 10.9942
1 22.6896 0.668658 19.1446
2 23.0933 1.5823 19.2491
2 23.4933 0.000584103 18.9792
1 16.1705 6.43643 25.9455
2 17.0338 6.94332 25.8492
2 16.1578 6.01524 26.8743
1 21.458 6.48905 25.3772
2 20.9347 6.27769 24.6044
2 22.3202 6.00264 25.3293
1 15.526 7.03912 1.01202
2 16.291 6.3478 0.915074
2 14.7359 6.57209 0.897141
1 21.4926 17.9446 34.5618
2 21.2855 17.6037 33.641
2 21.954 17.1736 35.1287
1 9.0558 29.9082 5.17685
2 10.0147 29.8219 5.52959
2 9.16323 30.3754 4.26788
1 24.7942 9.38937 16.2137
2 24.3478 10.2865 16.5012
2 24.9536 8.86932 17.0677
1 10.8956 28.4749 0.374321
2 10.0678 27.9374 0.250182
2 10.9748 29.1771 35.0658
1 26.2759 31.7216 6.45712
2 26.472 31.7674 5.46086
2 26.7792 32.4787 6.85286
1 30.7265 19.7087 17.4928
2 29.7535 19.4295 17.5405
2 31.208 18.9891 16.9209
1 11.0005 12.5921 3.12789
2 11.4825 13.3936 2.80601
2 10.3238 12.8707 3.80587
1 1.45148 19.3151 11.3634
2 1.39174 18.351 11.0942
2 2.21834 19.4429 11.9478
1 25.5822 34.1306 7.6948
2 25.044 33.2942 7.70167
2 25.6555 34.4225 8.65575
1 11.7543 33.6171 8.51617
2 10.8419 33.9458 8.78866
2 12.3244 34.4247 8.2908
1 9.54137 31.6998 33.1479
2 9.42864 32.2503 32.3109
2 8.60504 31.2846 33.3202
1 4.98654 2.198 1.91429
2 5.88169 2.12784 2.34451
2 4.66959 1.27139 1.85162
1 9.93517 16.8887 12.4262
2 9.2852 17.536 12.0949
2 9.44559 16.1801 12.9877
1 4.90558 27.9176 22.8003
2 4.53612 28.4705 23.5296
2 5.33977 28.5356 22.1284
1 7.24425 21.2155 29.7212
2 6.39897 20.768 30.098
2 6.96254 21.7855 28.8712
1 17.413 34.24 3.16361
2 16.9033 35.0337 2.79266
2 17.0273 33.4279 2.69195
1 12.0518 31.9209 10.5749
2 11.6078 31.0287 10.2356
2 11.8683 32.5526 9.86206
1 2.45484 13.235 19.9459
2 2.41036 12.7659 19.0579
2 1.86409 12.8332 20.6283
1 12.1388 24.0982 11.146
2 12.5891 24.9428 11.4406
2 11.2597 24.2942 10.6777
1 25.395 14.3397 12.5951
2 24.5708 14.9069 12.7998
2 25.0655 13.532 12.1114
1 32.1216 24.8539 12.3093
2 32.7275 25.5806 12.5721
2 32.6252 24.0045 12.6281
1 15.0943 9.35992 2.16247
2 14.1107 9.52485 2.36655
2 15.1761 8.50671 1.62009
1 6.42471 6.48016 18.285
2 5.82844 7.31263 18.3935
2 5.81222 5.66774 18.464
1 28.1833 19.801 33.3547
2 28.105 20.5568 34.0205
2 29.1147 19.8184 33.0122
1 19.9683 19.8546 23.7633
2 20.8609 19.7649 24.2518
2 19.9647 20.7911 23.3846
1 3.17051 13.914 23.2346
2 3.02316 14.769 22.7199
2 3.67941 13.2445 22.632
1 33.0106 7.29805 13.1099
2 33.2202 6.47993 13.6619
2 32.1101 7.18674 12.6939
1 30.9352 17.698 0.281245
2 30.7278 18.6965 0.126296
2 31.444 17.6358 1.11144
1 3.80358 15.4687 19.3042
2 4.56173 15.1819 19.914
2 3.06189 14.7717 19.3858
1 20.6253 3.92153 32.5353
2 20.1169 4.72991 32.1966
2 21.0285 3.44907 31.7085
1 12.0319 35.2364 0.946497
2 13.009 35.1467 0.798498
2 11.6151 34.417 0.529135
1 31.3447 27.4791 15.075
2 31.9424 27.511 14.2938
2 30.841 28.3369 15.0139
1 25.9615 11.8492 4.80479
2 26.21 10.8946 5.12955
2 24.9604 11.9244 4.66533
1 24.3611 7.75149 33.3983
2 23.8288 8.33742 32.7582
2 25.097 8.36241 33.7289
1 26.3024 23.9154 4.2805
2 25.8632 24.7255 4.55143
2 25.595 23.215 4.29512
1 31.0562 25.0353 32.137
2 31.226 25.7957 31.5321
2 30.0492 24.9707 32.2012
1 2.98548 11.7651 8.57616
2 3.20342 10.8533 8.86063
2 2.29962 12.0864 9.22075
1 15.6128 1.00843 5.51204
2 16.3777 1.23966 4.89096
2 15.6906 0.0634363 5.83001
1 23.5782 4.53392 24.8293
2 22.854 3.87775 24.9865
2 23.4991 4.75034 23.8266
1 27.6814 32.8974 22.0818
2 28.0762 33.5467 22.7629
2 28.3433 32.1811 21.8407
1 30.3378 12.6253 2.26505
2 31.2931 12.884 2.543
2 29.6286 13.0142 2.90865
1 23.729 24.5462 27.3863
2 24.6685 24.9149 27.1865
2 23.8339 23.8724 28.1341
1 32.0014 25.3582 28.7414
2 31.1125 24.8388 28.7332
2 31.8907 26.194 29.2895
1 34.3437 6.62441 9.75267
2 35.117 7.20477 10.0292
2 33.5515 7.18846 9.63827
1 10.4196 14.6608 8.20028
2 10.7753 13.768 7.91777
2 10.6064 14.6901 9.18437
1 19.917 27.114 34.2352
2 19.8859 27.8356 33.5225
2 19.2321 27.4255 34.9476
1 20.8359 19.7942 30.6685
2 20.9144 19.8162 29.6754
2 21.7218 19.9596 31.0447
1 11.3757 10.3163 33.7438
2 11.7358 10.354 32.7742
2 11.9006 9.6542 34.2584
1 7.8308 19.211 35.3908
2 8.02272 18.401 34.8255
2 6.82058 19.329 35.4099
1 15.0079 23.8836 11.8248
2 14.6402 24.5557 12.4238
2 14.904 23.0065 12.3521
1 2.28271 5.55638 19.3629
2 1.7066 5.2795 20.124
2 2.19534 6.54697 19.2042
1 0.399736 29.1949 5.34754
2 35.0167 29.1177 4.9192
2 1.0403 28.7999 4.73252
1 17.2056 24.2269 1.9207
2 18.1477 24.3569 1.62243
2 16.6372 25.027 1.63025
1 22.2297 18.5202 20.0961
2 22.3694 17.7592 19.4907
2 23.131 18.9034 20.2782
1 3.0952 18.4785 19.4671
2 2.83622 17.4853 19.2928
2 3.46129 18.438 20.4156
1 8.43499 7.48052 12.9718
2 8.50783 7.46758 13.9614
2 8.03168 8.3642 12.7668
1 31.0033 24.2261 4.0184
2 31.2139 24.2893 5.00281
2 30.098 24.5839 3.80317
1 15.7945 8.08355 28.9352
2 16.2831 8.15933 29.8199
2 15.7284 9.03612 28.5492
1 26.6802 29.4144 28.2324
2 26.1434 28.6798 27.7607
2 26.0322 29.9914 28.6432
1 32.1211 33.6582 30.4357
2 32.1759 32.7632 29.9727
2 31.1937 34.0641 30.2272
1 12.4827 0.820754 16.1232
2 12.7846 0.945401 17.0515
2 13.1549 0.322736 15.5888
1 23.0467 2.30522 33.2034
2 23.829 2.15305 32.5935
2 22.5947 3.18456 32.9978
1 34.0723 21.2736 27.1332
2 35.1014 21.2078 27.176
2 33.7977 21.909 27.8265
1 23.6503 15.8551 19.6157
2 24.1796 16.1498 20.4135
2 24.1011 16.2482 18.7958
1 22.8064 13.5112 34.2159
2 22.9733 12.641 34.7818
2 22.4998 13.2117 33.2917
1 35.1049 32.0421 7.63742
2 0.0342327 31.2398 8.04245
2 0.0994662 32.8928 7.92976
1 26.6072 27.6331 16.355
2 27.3473 27.2938 15.8518
2 25.9599 26.8367 16.3616
1 32.0603 6.53391 17.9132
2 31.9606 6.79895 18.8988
2 32.9823 6.88977 17.7107
1 0.414127 24.3889 15.3231
2 0.644097 24.675 16.2458
2 0.549479 25.1609 14.7083
1 11.0126 29.0731 26.3176
2 11.6583 28.3279 26.2575
2 10.122 28.6846 26.1749
1 32.6358 20.9779 24.7367
2 33.5287 20.9147 24.2384
2 32.8622 21.1538 25.6986
1 5.09168 28.8476 4.49959
2 4.53925 29.2187 3.72486
2 4.4185 28.3611 5.09286
1 16.955 29.3594 24.8864
2 16.2493 29.9832 24.5613
2 17.7374 29.4685 24.3381
1 18.7323 23.3287 9.54885
2 19.5943 22.9454 9.87497
2 17.9959 22.5743 9.57129
1 4.66077 22.6584 3.41371
2 5.4007 22.8146 2.73836
2 4.3375 21.7166 3.27794
1 32.4765 17.8156 2.80117
2 32.3375 18.5852 3.40448
2 33.1864 17.2567 3.2266
1 20.7137 2.588 8.61864
2 21.7167 2.36597 8.57937
2 20.6154 3.3787 9.23038
1 2.46175 17.0081 31.6012
2 1.8976 17.8121 31.8443
2 2.01109 16.4163 30.9079
1 26.3371 3.70881 18.4665
2 27.3422 3.55022 18.4735
2 26.0701 3.60967 17.4386
1 9.06012 27.4042 24.539
2 9.65589 26.6462 24.3968
2 8.40456 27.2151 25.2592
1 32.8047 16.4852 18.4266
2 32.75 16.6079 19.3732
2 32.5967 15.5182 18.2771
1 2.26192 5.45031 13.0391
2 2.99348 5.26118 12.3461
2 2.558 5.01742 13.9105
1 10.8947 6.52866 15.7523
2 9.90452 6.35576 15.7554
2 11.1535 6.72689 14.8078
1 13.7694 17.5501 12.5992
2 14.7708 17.6093 12.7313
2 13.5808 17.523 11.6237
1 32.4309 35.3567 1.8441
2 31.9849 0.665537 2.18314
2 31.9814 35.1505 0.943772
1 33.0304 23.4136 32.2118
2 32.1146 23.8384 32.1024
2 32.8968 22.4287 32.0519
1 25.61 4.74065 28.6223
2 25.6389 4.10811 27.8247
2 26.3806 5.41647 28.5262
1 16.9207 18.2287 9.36707
2 16.9389 18.514 8.39758
2 17.2755 17.2803 9.39965
1 9.38559 34.6153 9.54048
2 9.59984 34.775 10.5249
2 8.57589 33.9886 9.57728
1 20.5921 17.6879 22.0564
2 21.1551 18.0642 21.238
2 20.2522 18.4978 22.6262
1 2.66532 20.0588 25.1596
2 3.36559 19.4213 25.4601
2 3.20704 20.6835 24.5575
1 0.859041 5.2462 7.11449
2 0.117322 4.70455 7.51945
2 0.479581 6.17728 7.05567
1 33.2924 35.3225 23.1597
2 34.2905 35.1503 22.954
2 33.2285 0.694643 23.7061
1 14.6456 32.8938 21.0032
2 13.9227 33.6092 21.1815
2 14.7126 32.2715 21.828
1 29.434 23.6251 9.17454
2 29.0868 24.2323 8.43061
2 29.0151 22.7207 9.09936
1 5.30211 20.2426 9.23263
2 5.57633 21.2231 9.2181
2 4.29483 20.2377 9.41196
1 11.1159 2.80834 15.0379
2 11.5703 2.15228 15.5841
2 11.504 2.83579 14.1245
1 2.20639 17.7579 28.224
2 2.94797 17.8681 27.5194
2 2.30125 18.5046 28.8942
1 5.52669 23.2556 5.85578
2 6.39624 22.6895 5.89529
2 4.9942 22.8175 5.13111
1 13.1158 16.8775 21.2712
2 14.0903 17.1266 21.5105
2 12.5664 17.0016 22.0502
1 34.3325 31.5884 3.3856
2 33.9963 31.3141 4.29715
2 34.3329 32.5602 3.33682
1 32.0203 2.45951 19.8873
2 31.1945 3.0413 20.1955
2 31.8282 1.51327 20.1578
1 5.76039 13.8011 8.97439
2 4.92243 13.2337 9.06797
2 6.57215 13.1533 8.95144
1 23.0367 32.5682 8.35285
2 22.9134 33.2635 9.06657
2 22.3826 31.8293 8.49175
1 16.288 16.0689 22.9165
2 16.0628 17.0399 22.8422
2 17.1355 15.9066 22.3894
1 21.2976 9.31701 29.5206
2 21.3606 8.60405 28.7928
2 20.5412 9.92621 29.2882
1 26.3255 22.3689 8.54706
2 27.0831 21.9368 9.09722
2 26.5274 22.3371 7.56099
1 2.76237 4.14888 32.3959
2 3.62783 3.63947 32.4667
2 2.20968 3.75742 31.6362
1 4.3492 5.01495 11.0923
2 5.23032 5.48017 11.1218
2 4.03986 5.08008 10.1208
1 6.89972 33.3533 10.0162
2 6.88967 32.8916 10.9564
2 6.50909 32.7914 9.2881
1 12.0188 27.5139 4.48205
2 11.8008 28.3408 4.97914
2 12.7068 26.9357 4.94459
1 18.1623 10.7574 10.7318
2 18.8084 11.2251 10.0904
2 18.6657 9.865 10.9843
1 4.75294 33.4101 1.90248
2 4.87639 33.999 2.71806
2 5.65427 33.3347 1.55032
1 31.6711 25.3251 1.64969
2 31.8612 24.9609 2.57017
2 32.6034 25.4398 1.25064
1 16.0017 29.9695 4.3434
2 16.0036 29.9219 5.36546
2 16.4622 29.0545 4.03065
1 10.707 29.5879 29.406