#LAMMPS data file generated on 2016-12-08 via gen_data.py, version 1 Nov 2016

50 atoms
1  atom types
49 bonds
1 bond types
0 angles
0 angle types
0 dihedrals
0 dihedral types

0.0000000000000000e+00   1.0000000000000000e+02    xlo xhi
0.0000000000000000e+00   1.0000000000000000e+02    ylo yhi
0.0000000000000000e+00   1.0000000000000000e+02    zlo zhi

Masses

1   1.0000

Pair Coeffs

1  1.00000  1.0000

Bond Coeffs

1  1.00000  1.0000

Atoms

1       1  1  0.00000   25.0000000000  50.0000000000 50.0000000000 0 0 0
2       1  1  0.00000   26.0000000000  50.0000000000 50.0000000000 0 0 0
3       1  1  0.00000   27.0000000000  50.0000000000 50.0000000000 0 0 0
4       1  1  0.00000   28.0000000000  50.0000000000 50.0000000000 0 0 0
5       1  1  0.00000   29.0000000000  50.0000000000 50.0000000000 0 0 0
6       1  1  0.00000   30.0000000000  50.0000000000 50.0000000000 0 0 0
7       1  1  0.00000   31.0000000000  50.0000000000 50.0000000000 0 0 0
8       1  1  0.00000   32.0000000000  50.0000000000 50.0000000000 0 0 0
9       1  1  0.00000   33.0000000000  50.0000000000 50.0000000000 0 0 0
10      1  1  0.00000   34.0000000000  50.0000000000 50.0000000000 0 0 0
11      1  1  0.00000   35.0000000000  50.0000000000 50.0000000000 0 0 0
12      1  1  0.00000   36.0000000000  50.0000000000 50.0000000000 0 0 0
13      1  1  0.00000   37.0000000000  50.0000000000 50.0000000000 0 0 0
14      1  1  0.00000   38.0000000000  50.0000000000 50.0000000000 0 0 0
15      1  1  0.00000   39.0000000000  50.0000000000 50.0000000000 0 0 0
16      1  1  0.00000   40.0000000000  50.0000000000 50.0000000000 0 0 0
17      1  1  0.00000   41.0000000000  50.0000000000 50.0000000000 0 0 0
18      1  1  0.00000   42.0000000000  50.0000000000 50.0000000000 0 0 0
19      1  1  0.00000   43.0000000000  50.0000000000 50.0000000000 0 0 0
20      1  1  0.00000   44.0000000000  50.0000000000 50.0000000000 0 0 0
21      1  1  0.00000   45.0000000000  50.0000000000 50.0000000000 0 0 0
22      1  1  0.00000   46.0000000000  50.0000000000 50.0000000000 0 0 0
23      1  1  0.00000   47.0000000000  50.0000000000 50.0000000000 0 0 0
24      1  1  0.00000   48.0000000000  50.0000000000 50.0000000000 0 0 0
25      1  1  0.00000   49.0000000000  50.0000000000 50.0000000000 0 0 0
26      1  1  0.00000   50.0000000000  50.0000000000 50.0000000000 0 0 0
27      1  1  0.00000   51.0000000000  50.0000000000 50.0000000000 0 0 0
28      1  1  0.00000   52.0000000000  50.0000000000 50.0000000000 0 0 0
29      1  1  0.00000   53.0000000000  50.0000000000 50.0000000000 0 0 0
30      1  1  0.00000   54.0000000000  50.0000000000 50.0000000000 0 0 0
31      1  1  0.00000   55.0000000000  50.0000000000 50.0000000000 0 0 0
32      1  1  0.00000   56.0000000000  50.0000000000 50.0000000000 0 0 0
33      1  1  0.00000   57.0000000000  50.0000000000 50.0000000000 0 0 0
34      1  1  0.00000   58.0000000000  50.0000000000 50.0000000000 0 0 0
35      1  1  0.00000   59.0000000000  50.0000000000 50.0000000000 0 0 0
36      1  1  0.00000   60.0000000000  50.0000000000 50.0000000000 0 0 0
37      1  1  0.00000   61.0000000000  50.0000000000 50.0000000000 0 0 0
38      1  1  0.00000   62.0000000000  50.0000000000 50.0000000000 0 0 0
39      1  1  0.00000   63.0000000000  50.0000000000 50.0000000000 0 0 0
40      1  1  0.00000   64.0000000000  50.0000000000 50.0000000000 0 0 0
41      1  1  0.00000   65.0000000000  50.0000000000 50.0000000000 0 0 0
42      1  1  0.00000   66.0000000000  50.0000000000 50.0000000000 0 0 0
43      1  1  0.00000   67.0000000000  50.0000000000 50.0000000000 0 0 0
44      1  1  0.00000   68.0000000000  50.0000000000 50.0000000000 0 0 0
45      1  1  0.00000   69.0000000000  50.0000000000 50.0000000000 0 0 0
46      1  1  0.00000   70.0000000000  50.0000000000 50.0000000000 0 0 0
47      1  1  0.00000   71.0000000000  50.0000000000 50.0000000000 0 0 0
48      1  1  0.00000   72.0000000000  50.0000000000 50.0000000000 0 0 0
49      1  1  0.00000   73.0000000000  50.0000000000 50.0000000000 0 0 0
50      1  1  0.00000   74.0000000000  50.0000000000 50.0000000000 0 0 0

Bonds

1       1  1   2 
2       1  2   3 
3       1  3   4 
4       1  4   5 
5       1  5   6 
6       1  6   7 
7       1  7   8 
8       1  8   9 
9       1  9   10
10      1  10  11
11      1  11  12
12      1  12  13
13      1  13  14
14      1  14  15
15      1  15  16
16      1  16  17
17      1  17  18
18      1  18  19
19      1  19  20
20      1  20  21
21      1  21  22
22      1  22  23
23      1  23  24
24      1  24  25
25      1  25  26
26      1  26  27
27      1  27  28
28      1  28  29
29      1  29  30
30      1  30  31
31      1  31  32
32      1  32  33
33      1  33  34
34      1  34  35
35      1  35  36
36      1  36  37
37      1  37  38
38      1  38  39
39      1  39  40
40      1  40  41
41      1  41  42
42      1  42  43
43      1  43  44
44      1  44  45
45      1  45  46
46      1  46  47
47      1  47  48
48      1  48  49
49      1  49  50
